# vtk DataFile Version 2.0
Solution time step = 499 
ASCII

DATASET UNSTRUCTURED_GRID
POINTS 2113 double
0.000000 0.000000 0.000000 
1.000000 0.000000 0.000000 
1.000000 1.000000 0.000000 
0.000000 1.000000 0.000000 
0.031250 0.000000 0.000000 
0.062500 0.000000 0.000000 
0.093750 0.000000 0.000000 
0.125000 0.000000 0.000000 
0.156250 0.000000 0.000000 
0.187500 0.000000 0.000000 
0.218750 0.000000 0.000000 
0.250000 0.000000 0.000000 
0.281250 0.000000 0.000000 
0.312500 0.000000 0.000000 
0.343750 0.000000 0.000000 
0.375000 0.000000 0.000000 
0.406250 0.000000 0.000000 
0.437500 0.000000 0.000000 
0.468750 0.000000 0.000000 
0.500000 0.000000 0.000000 
0.531250 0.000000 0.000000 
0.562500 0.000000 0.000000 
0.593750 0.000000 0.000000 
0.625000 0.000000 0.000000 
0.656250 0.000000 0.000000 
0.687500 0.000000 0.000000 
0.718750 0.000000 0.000000 
0.750000 0.000000 0.000000 
0.781250 0.000000 0.000000 
0.812500 0.000000 0.000000 
0.843750 0.000000 0.000000 
0.875000 0.000000 0.000000 
0.906250 0.000000 0.000000 
0.937500 0.000000 0.000000 
0.968750 0.000000 0.000000 
1.000000 0.031250 0.000000 
1.000000 0.062500 0.000000 
1.000000 0.093750 0.000000 
1.000000 0.125000 0.000000 
1.000000 0.156250 0.000000 
1.000000 0.187500 0.000000 
1.000000 0.218750 0.000000 
1.000000 0.250000 0.000000 
1.000000 0.281250 0.000000 
1.000000 0.312500 0.000000 
1.000000 0.343750 0.000000 
1.000000 0.375000 0.000000 
1.000000 0.406250 0.000000 
1.000000 0.437500 0.000000 
1.000000 0.468750 0.000000 
1.000000 0.500000 0.000000 
1.000000 0.531250 0.000000 
1.000000 0.562500 0.000000 
1.000000 0.593750 0.000000 
1.000000 0.625000 0.000000 
1.000000 0.656250 0.000000 
1.000000 0.687500 0.000000 
1.000000 0.718750 0.000000 
1.000000 0.750000 0.000000 
1.000000 0.781250 0.000000 
1.000000 0.812500 0.000000 
1.000000 0.843750 0.000000 
1.000000 0.875000 0.000000 
1.000000 0.906250 0.000000 
1.000000 0.937500 0.000000 
1.000000 0.968750 0.000000 
0.968750 1.000000 0.000000 
0.937500 1.000000 0.000000 
0.906250 1.000000 0.000000 
0.875000 1.000000 0.000000 
0.843750 1.000000 0.000000 
0.812500 1.000000 0.000000 
0.781250 1.000000 0.000000 
0.750000 1.000000 0.000000 
0.718750 1.000000 0.000000 
0.687500 1.000000 0.000000 
0.656250 1.000000 0.000000 
0.625000 1.000000 0.000000 
0.593750 1.000000 0.000000 
0.562500 1.000000 0.000000 
0.531250 1.000000 0.000000 
0.500000 1.000000 0.000000 
0.468750 1.000000 0.000000 
0.437500 1.000000 0.000000 
0.406250 1.000000 0.000000 
0.375000 1.000000 0.000000 
0.343750 1.000000 0.000000 
0.312500 1.000000 0.000000 
0.281250 1.000000 0.000000 
0.250000 1.000000 0.000000 
0.218750 1.000000 0.000000 
0.187500 1.000000 0.000000 
0.156250 1.000000 0.000000 
0.125000 1.000000 0.000000 
0.093750 1.000000 0.000000 
0.062500 1.000000 0.000000 
0.031250 1.000000 0.000000 
0.000000 0.968750 0.000000 
0.000000 0.937500 0.000000 
0.000000 0.906250 0.000000 
0.000000 0.875000 0.000000 
0.000000 0.843750 0.000000 
0.000000 0.812500 0.000000 
0.000000 0.781250 0.000000 
0.000000 0.750000 0.000000 
0.000000 0.718750 0.000000 
0.000000 0.687500 0.000000 
0.000000 0.656250 0.000000 
0.000000 0.625000 0.000000 
0.000000 0.593750 0.000000 
0.000000 0.562500 0.000000 
0.000000 0.531250 0.000000 
0.000000 0.500000 0.000000 
0.000000 0.468750 0.000000 
0.000000 0.437500 0.000000 
0.000000 0.406250 0.000000 
0.000000 0.375000 0.000000 
0.000000 0.343750 0.000000 
0.000000 0.312500 0.000000 
0.000000 0.281250 0.000000 
0.000000 0.250000 0.000000 
0.000000 0.218750 0.000000 
0.000000 0.187500 0.000000 
0.000000 0.156250 0.000000 
0.000000 0.125000 0.000000 
0.000000 0.093750 0.000000 
0.000000 0.062500 0.000000 
0.000000 0.031250 0.000000 
0.500000 0.500000 0.000000 
0.750000 0.250000 0.000000 
0.250000 0.250000 0.000000 
0.250000 0.750000 0.000000 
0.750000 0.750000 0.000000 
0.375000 0.125000 0.000000 
0.125000 0.125000 0.000000 
0.625000 0.125000 0.000000 
0.500000 0.250000 0.000000 
0.875000 0.125000 0.000000 
0.625000 0.375000 0.000000 
0.375000 0.375000 0.000000 
0.125000 0.375000 0.000000 
0.250000 0.500000 0.000000 
0.125000 0.625000 0.000000 
0.375000 0.625000 0.000000 
0.125000 0.875000 0.000000 
0.875000 0.375000 0.000000 
0.875000 0.625000 0.000000 
0.750000 0.500000 0.000000 
0.875000 0.875000 0.000000 
0.625000 0.625000 0.000000 
0.625000 0.875000 0.000000 
0.375000 0.875000 0.000000 
0.500000 0.750000 0.000000 
0.187500 0.062500 0.000000 
0.062500 0.062500 0.000000 
0.312500 0.062500 0.000000 
0.250000 0.125000 0.000000 
0.437500 0.062500 0.000000 
0.312500 0.187500 0.000000 
0.187500 0.187500 0.000000 
0.562500 0.062500 0.000000 
0.500000 0.125000 0.000000 
0.562500 0.187500 0.000000 
0.437500 0.187500 0.000000 
0.687500 0.187500 0.000000 
0.625000 0.250000 0.000000 
0.375000 0.250000 0.000000 
0.687500 0.062500 0.000000 
0.812500 0.062500 0.000000 
0.750000 0.125000 0.000000 
0.937500 0.062500 0.000000 
0.812500 0.187500 0.000000 
0.437500 0.312500 0.000000 
0.312500 0.312500 0.000000 
0.562500 0.312500 0.000000 
0.500000 0.375000 0.000000 
0.687500 0.312500 0.000000 
0.562500 0.437500 0.000000 
0.437500 0.437500 0.000000 
0.062500 0.187500 0.000000 
0.125000 0.250000 0.000000 
0.062500 0.312500 0.000000 
0.187500 0.312500 0.000000 
0.062500 0.437500 0.000000 
0.250000 0.375000 0.000000 
0.187500 0.437500 0.000000 
0.187500 0.562500 0.000000 
0.125000 0.500000 0.000000 
0.250000 0.625000 0.000000 
0.187500 0.687500 0.000000 
0.062500 0.562500 0.000000 
0.312500 0.437500 0.000000 
0.375000 0.500000 0.000000 
0.312500 0.562500 0.000000 
0.437500 0.562500 0.000000 
0.312500 0.687500 0.000000 
0.062500 0.687500 0.000000 
0.125000 0.750000 0.000000 
0.062500 0.812500 0.000000 
0.187500 0.812500 0.000000 
0.062500 0.937500 0.000000 
0.937500 0.187500 0.000000 
0.937500 0.312500 0.000000 
0.875000 0.250000 0.000000 
0.937500 0.437500 0.000000 
0.812500 0.312500 0.000000 
0.937500 0.562500 0.000000 
0.875000 0.500000 0.000000 
0.812500 0.562500 0.000000 
0.812500 0.437500 0.000000 
0.812500 0.687500 0.000000 
0.750000 0.625000 0.000000 
0.750000 0.375000 0.000000 
0.937500 0.687500 0.000000 
0.937500 0.812500 0.000000 
0.875000 0.750000 0.000000 
0.937500 0.937500 0.000000 
0.812500 0.812500 0.000000 
0.687500 0.437500 0.000000 
0.687500 0.562500 0.000000 
0.625000 0.500000 0.000000 
0.687500 0.687500 0.000000 
0.562500 0.562500 0.000000 
0.812500 0.937500 0.000000 
0.687500 0.937500 0.000000 
0.750000 0.875000 0.000000 
0.562500 0.937500 0.000000 
0.687500 0.812500 0.000000 
0.437500 0.937500 0.000000 
0.500000 0.875000 0.000000 
0.437500 0.812500 0.000000 
0.562500 0.812500 0.000000 
0.312500 0.812500 0.000000 
0.375000 0.750000 0.000000 
0.625000 0.750000 0.000000 
0.312500 0.937500 0.000000 
0.187500 0.937500 0.000000 
0.250000 0.875000 0.000000 
0.562500 0.687500 0.000000 
0.437500 0.687500 0.000000 
0.500000 0.625000 0.000000 
0.093750 0.031250 0.000000 
0.031250 0.031250 0.000000 
0.156250 0.031250 0.000000 
0.125000 0.062500 0.000000 
0.218750 0.031250 0.000000 
0.156250 0.093750 0.000000 
0.093750 0.093750 0.000000 
0.281250 0.031250 0.000000 
0.250000 0.062500 0.000000 
0.281250 0.093750 0.000000 
0.218750 0.093750 0.000000 
0.343750 0.093750 0.000000 
0.312500 0.125000 0.000000 
0.187500 0.125000 0.000000 
0.343750 0.031250 0.000000 
0.406250 0.031250 0.000000 
0.375000 0.062500 0.000000 
0.468750 0.031250 0.000000 
0.406250 0.093750 0.000000 
0.218750 0.156250 0.000000 
0.156250 0.156250 0.000000 
0.281250 0.156250 0.000000 
0.250000 0.187500 0.000000 
0.343750 0.156250 0.000000 
0.281250 0.218750 0.000000 
0.218750 0.218750 0.000000 
0.531250 0.031250 0.000000 
0.500000 0.062500 0.000000 
0.531250 0.093750 0.000000 
0.468750 0.093750 0.000000 
0.593750 0.093750 0.000000 
0.562500 0.125000 0.000000 
0.437500 0.125000 0.000000 
0.593750 0.156250 0.000000 
0.531250 0.156250 0.000000 
0.500000 0.187500 0.000000 
0.468750 0.156250 0.000000 
0.531250 0.218750 0.000000 
0.468750 0.218750 0.000000 
0.406250 0.156250 0.000000 
0.656250 0.156250 0.000000 
0.625000 0.187500 0.000000 
0.656250 0.218750 0.000000 
0.593750 0.218750 0.000000 
0.718750 0.218750 0.000000 
0.687500 0.250000 0.000000 
0.562500 0.250000 0.000000 
0.375000 0.187500 0.000000 
0.406250 0.218750 0.000000 
0.343750 0.218750 0.000000 
0.437500 0.250000 0.000000 
0.312500 0.250000 0.000000 
0.593750 0.031250 0.000000 
0.656250 0.031250 0.000000 
0.625000 0.062500 0.000000 
0.718750 0.031250 0.000000 
0.656250 0.093750 0.000000 
0.781250 0.031250 0.000000 
0.750000 0.062500 0.000000 
0.781250 0.093750 0.000000 
0.718750 0.093750 0.000000 
0.843750 0.093750 0.000000 
0.812500 0.125000 0.000000 
0.687500 0.125000 0.000000 
0.843750 0.031250 0.000000 
0.906250 0.031250 0.000000 
0.875000 0.062500 0.000000 
0.968750 0.031250 0.000000 
0.906250 0.093750 0.000000 
0.718750 0.156250 0.000000 
0.781250 0.156250 0.000000 
0.750000 0.187500 0.000000 
0.843750 0.156250 0.000000 
0.781250 0.218750 0.000000 
0.343750 0.281250 0.000000 
0.281250 0.281250 0.000000 
0.406250 0.281250 0.000000 
0.375000 0.312500 0.000000 
0.468750 0.281250 0.000000 
0.406250 0.343750 0.000000 
0.343750 0.343750 0.000000 
0.531250 0.281250 0.000000 
0.500000 0.312500 0.000000 
0.531250 0.343750 0.000000 
0.468750 0.343750 0.000000 
0.593750 0.343750 0.000000 
0.562500 0.375000 0.000000 
0.437500 0.375000 0.000000 
0.593750 0.281250 0.000000 
0.656250 0.281250 0.000000 
0.625000 0.312500 0.000000 
0.718750 0.281250 0.000000 
0.656250 0.343750 0.000000 
0.468750 0.406250 0.000000 
0.406250 0.406250 0.000000 
0.531250 0.406250 0.000000 
0.500000 0.437500 0.000000 
0.593750 0.406250 0.000000 
0.531250 0.468750 0.000000 
0.468750 0.468750 0.000000 
0.031250 0.093750 0.000000 
0.062500 0.125000 0.000000 
0.031250 0.156250 0.000000 
0.093750 0.156250 0.000000 
0.031250 0.218750 0.000000 
0.125000 0.187500 0.000000 
0.093750 0.218750 0.000000 
0.093750 0.281250 0.000000 
0.062500 0.250000 0.000000 
0.125000 0.312500 0.000000 
0.093750 0.343750 0.000000 
0.031250 0.281250 0.000000 
[...]
POINT_DATA 2113
SCALARS damage double
LOOKUP_TABLE default
0.000000
0.000000
0.000000
0.000000
0.000000
0.060606
0.189189
0.378378
0.378378
0.162162
0.081081
0.027027
0.000000
0.000000
0.000000
0.000000
0.000000
0.000000
0.000000
0.000000
0.000000
0.000000
0.000000
0.000000
0.000000
0.000000
0.027027
0.000000
0.081081
0.189189
0.378378
0.378378
0.189189
0.060606
0.000000
0.000000
0.000000
0.000000
0.000000
0.000000
0.000000
0.000000
0.000000
0.000000
0.000000
0.000000
0.000000
0.000000
0.000000
0.000000
0.000000
0.000000
0.000000
0.000000
0.000000
0.000000
0.000000
0.000000
0.000000
0.000000
0.000000
0.000000
0.000000
0.000000
0.000000
0.000000
0.000000
0.060606
0.189189
0.378378
0.405405
0.135135
0.081081
0.027027
0.000000
0.000000
0.000000
0.000000
0.000000
0.000000
0.000000
0.000000
0.000000
0.000000
0.000000
0.000000
0.000000
0.000000
0.000000
0.000000
0.081081
0.189189
0.351351
0.378378
0.189189
0.060606
0.000000
0.000000
0.000000
0.000000
0.000000
0.000000
0.000000
0.000000
0.000000
0.000000
0.000000
0.000000
0.000000
0.000000
0.000000
0.000000
0.000000
0.000000
0.000000
0.000000
0.000000
0.000000
0.000000
0.000000
0.000000
0.000000
0.000000
0.000000
0.000000
0.000000
0.000000
0.000000
0.558824
0.058824
0.088235
0.044118
0.073529
0.000000
0.264706
0.073529
0.191176
0.176471
0.000000
0.000000
0.058824
0.000000
0.044118
0.000000
0.191176
0.058824
0.058824
0.000000
0.250000
0.000000
0.029412
0.102941
0.161765
0.229508
0.055556
0.000000
0.073529
0.000000
0.014706
0.411765
0.000000
0.000000
0.102941
0.029412
0.191176
0.250000
0.014706
0.000000
0.295082
0.132353
0.055556
0.426471
0.088235
0.000000
0.367647
0.529412
0.000000
0.176471
0.102941
0.049180
0.117647
0.049180
0.161765
0.000000
0.014706
0.044118
0.044118
0.014706
0.000000
0.029412
0.000000
0.000000
0.000000
0.000000
0.102941
0.000000
0.016393
0.073529
0.049180
0.367647
0.055556
0.049180
0.032787
0.088235
0.000000
0.029412
0.000000
0.014706
0.073529
0.044118
0.058824
0.014706
0.000000
0.032787
0.049180
0.102941
0.055556
0.441176
0.000000
0.000000
0.000000
0.000000
0.176471
0.229508
0.000000
0.088235
0.000000
0.014706
0.000000
0.000000
0.132353
0.058824
0.205882
0.250000
0.058824
0.000000
0.344262
0.147059
0.088235
0.323529
0.558824
0.200000
0.000000
0.380000
0.311475
0.100000
0.455882
0.176471
0.000000
0.032787
0.029412
0.132353
0.000000
0.000000
0.455882
0.000000
0.000000
0.000000
0.000000
0.000000
0.176471
0.441176
0.073529
0.132353
0.014706
0.102941
0.250000
0.000000
0.000000
0.000000
0.000000
0.000000
0.000000
0.000000
0.117647
0.029412
0.058824
0.000000
0.147059
0.058824
0.014706
0.191176
0.308824
0.205882
0.323529
0.058824
0.058824
0.323529
0.014706
0.014706
0.029412
0.058824
0.014706
0.000000
0.000000
0.000000
0.000000
0.014706
0.120000
0.049180
0.176471
0.073529
0.441176
0.308824
0.088235
0.400000
0.200000
0.295082
0.000000
0.161765
0.279412
0.191176
0.102941
0.455882
0.044118
0.014706
0.029412
0.044118
0.014706
0.117647
0.014706
0.000000
0.323529
0.308824
0.411765
0.220588
0.161765
0.220588
0.102941
0.294118
0.088235
0.132353
0.000000
0.000000
0.308824
0.000000
0.426471
0.558824
0.044118
0.411765
0.308824
0.000000
0.049180
0.000000
0.117647
0.000000
0.176471
0.088235
0.073529
0.049180
0.073529
0.044118
0.000000
0.455882
0.441176
0.470588
0.088235
0.500000
0.000000
0.016393
0.000000
0.029412
0.000000
0.058824
0.058824
0.029412
0.029412
0.000000
0.000000
0.073529
0.000000
0.058824
0.044118
0.044118
0.044118
0.014706
0.029412
0.000000
0.000000
0.029412
0.044118
0.000000
0.014706
0.117647
0.000000
0.000000
0.000000
0.000000
0.000000
0.000000
0.000000
0.000000
0.000000
0.000000
0.000000
0.000000
0.000000
0.000000
0.000000
0.000000
0.000000
0.000000
0.102941
0.000000
0.308824
0.000000
0.000000
0.000000
0.000000
0.000000
0.000000
0.000000
0.000000
0.000000
0.014706
0.000000
0.058824
0.044118
0.073529
0.049180
0.088235
0.088235
0.000000
0.485294
0.058824
0.455882
0.058824
0.455882
0.000000
0.049180
0.000000
0.147059
0.000000
0.000000
0.000000
0.049180
0.000000
0.102941
0.000000
0.049180
0.058824
0.073529
0.029412
0.058824
0.102941
0.000000
0.000000
0.000000
0.000000
0.000000
0.455882
0.470588
0.058824
0.117647
0.044118
0.000000
0.000000
0.000000
0.000000
0.000000
0.014706
0.029412
0.058824
0.044118
0.058824
0.044118
0.000000
0.000000
0.073529
0.161765
0.029412
0.044118
0.014706
0.088235
0.058824
0.000000
0.044118
0.000000
0.014706
0.000000
0.000000
0.000000
0.000000
0.000000
0.000000
0.044118
0.000000
0.049180
0.073529
0.058824
0.102941
0.176471
0.073529
0.000000
0.000000
0.049180
0.000000
0.176471
0.485294
0.455882
0.455882
0.455882
0.264706
0.000000
0.000000
0.000000
0.000000
0.000000
0.000000
0.000000
0.000000
0.000000
0.000000
0.000000
0.000000
0.000000
0.000000
0.000000
0.029412
0.000000
0.044118
0.044118
0.176471
0.044118
0.426471
0.200000
0.400000
0.311475
0.120000
0.470588
0.000000
0.032787
0.029412
0.147059
0.014706
0.029412
0.455882
0.000000
0.000000
0.000000
0.000000
0.014706
0.205882
0.088235
0.132353
0.029412
0.117647
0.000000
0.000000
0.000000
0.014706
0.000000
0.029412
0.014706
0.132353
0.044118
0.102941
0.029412
0.176471
0.073529
0.029412
0.205882
0.279412
0.235294
0.352941
0.058824
0.044118
0.426471
0.029412
0.058824
0.029412
0.044118
0.014706
0.000000
0.000000
0.000000
0.000000
0.000000
0.120000
0.049180
0.161765
0.088235
0.441176
0.352941
0.102941
0.380000
0.200000
0.278689
0.264706
0.220588
0.132353
0.000000
0.058824
0.000000
0.147059
0.014706
0.367647
0.294118
0.382353
0.264706
0.132353
0.176471
0.132353
0.279412
0.073529
0.102941
0.411765
0.338235
0.558824
0.000000
0.000000
0.121951
0.068182
0.279070
0.132075
0.000000
0.465116
0.360000
0.392857
0.267857
0.285714
0.442623
0.163934
0.232558
0.139535
0.200000
0.069767
0.160714
0.230769
0.112903
0.338462
0.264706
0.338462
0.308824
0.205882
0.000000
0.000000
0.000000
0.053571
0.000000
0.000000
0.131148
0.000000
0.015385
0.044118
0.061538
0.058824
0.102941
0.169231
0.000000
0.000000
0.000000
0.000000
0.000000
0.000000
0.058824
0.338235
0.220588
0.323529
0.176471
0.455882
0.000000
0.000000
0.000000
0.000000
0.000000
0.000000
0.000000
0.000000
0.000000
0.000000
0.000000
0.000000
0.000000
0.000000
0.000000
0.000000
0.000000
0.000000
0.000000
0.000000
0.000000
0.000000
0.308824
0.279412
0.220588
0.382353
0.102941
0.338235
0.308824
0.073529
0.088235
0.117647
0.132353
0.058824
0.088235
0.205882
0.029412
0.000000
0.000000
0.014706
0.014706
0.161765
0.250000
0.161765
0.161765
0.058824
0.132353
0.147059
0.000000
0.000000
0.000000
0.000000
0.000000
0.000000
0.000000
0.000000
0.000000
0.000000
0.000000
0.000000
0.000000
0.000000
0.000000
0.000000
0.014706
0.014706
0.044118
0.044118
0.000000
0.000000
0.000000
0.000000
0.000000
0.000000
0.117647
0.058824
0.073529
0.000000
0.117647
0.088235
0.000000
0.073529
0.014706
0.014706
0.014706
0.058824
0.014706
0.000000
0.132353
0.117647
0.088235
0.044118
0.132353
0.073529
0.058824
0.014706
0.014706
0.014706
0.044118
0.014706
0.132353
0.176471
0.264706
0.220588
0.279412
0.294118
0.205882
0.220588
0.294118
0.294118
0.308824
0.250000
0.294118
0.205882
0.088235
0.132353
0.058824
0.132353
0.014706
0.000000
0.161765
0.235294
0.367647
0.220588
0.338235
0.250000
0.014706
0.029412
0.029412
0.014706
0.029412
0.014706
0.014706
0.029412
0.029412
0.014706
0.029412
0.029412
0.058824
0.044118
0.102941
0.073529
0.000000
0.029412
0.014706
0.044118
0.029412
0.058824
0.000000
0.000000
0.000000
0.000000
0.000000
0.000000
0.000000
0.000000
0.000000
0.000000
0.000000
0.000000
0.000000
0.023256
0.000000
0.000000
0.000000
0.000000
0.000000
0.000000
0.000000
0.044118
0.046512
0.000000
0.071429
0.017857
0.196429
0.163934
0.032787
0.215385
0.123077
0.088235
0.061538
0.132353
0.117647
0.030769
0.323077
0.411765
0.323529
0.352941
0.235294
0.426471
0.323529
0.044118
0.088235
0.044118
0.161765
0.073529
0.139535
0.232558
0.200000
0.465116
0.303571
0.279070
0.380000
0.267857
0.375000
0.132075
0.163934
0.459016
0.121951
0.000000
0.068182
0.000000
0.000000
0.307692
0.200000
0.235294
0.112903
0.147059
0.147059
0.308824
0.294118
0.191176
0.176471
0.264706
0.235294
0.176471
0.191176
0.176471
0.102941
0.117647
0.220588
0.338235
0.338235
0.191176
0.147059
0.088235
0.088235
0.088235
0.058824
0.029412
0.000000
0.058824
0.014706
0.014706
0.029412
0.000000
0.000000
0.014706
0.014706
0.044118
0.014706
0.044118
0.000000
0.000000
0.073529
0.044118
0.044118
0.117647
0.088235
0.000000
0.000000
0.000000
0.000000
0.058824
0.000000
0.000000
0.235294
0.235294
0.294118
0.176471
0.485294
0.426471
0.205882
0.411765
0.529412
0.544118
0.352941
0.544118
0.352941
0.147059
0.264706
0.323529
0.176471
0.367647
0.058824
0.088235
0.441176
0.117647
0.147059
0.044118
0.279412
0.000000
0.352941
0.426471
0.602941
0.250000
0.308824
0.161765
0.176471
0.088235
0.205882
0.000000
0.014706
0.220588
0.044118
0.000000
0.014706
0.000000
0.000000
0.132353
0.044118
0.044118
0.000000
0.000000
0.044118
0.000000
0.161765
0.102941
0.411765
0.176471
0.044118
0.514706
0.544118
0.544118
0.411765
0.308824
0.426471
0.308824
0.323529
0.132353
0.191176
0.000000
0.102941
0.426471
0.176471
0.573529
0.544118
0.323529
0.558824
0.426471
0.000000
0.000000
0.000000
0.000000
0.000000
0.049180
0.000000
0.000000
0.000000
0.049180
0.000000
0.000000
0.107692
0.161765
0.107692
0.176471
0.092308
0.000000
0.000000
0.000000
0.000000
0.000000
0.191176
0.132353
0.102941
0.102941
0.161765
0.088235
0.076923
0.088235
0.073529
0.061538
0.061538
0.061538
0.049180
0.049180
0.088235
0.073529
0.058824
0.058824
0.058824
0.058824
0.046154
0.000000
0.000000
0.000000
0.000000
0.000000
0.235294
0.455882
0.176471
0.205882
0.132353
0.397059
0.117647
0.058824
0.455882
0.411765
0.058824
0.102941
0.235294
0.088235
0.058824
0.073529
0.088235
0.088235
0.485294
0.073529
0.073529
0.058824
0.000000
0.000000
0.000000
0.000000
0.000000
0.032787
0.000000
0.000000
0.000000
0.000000
0.000000
0.000000
0.030769
0.044118
0.015385
0.044118
0.000000
0.000000
0.000000
0.000000
0.000000
0.000000
0.073529
0.058824
0.044118
0.073529
0.029412
0.029412
0.102941
0.029412
0.029412
0.029412
0.029412
0.044118
0.044118
0.044118
0.000000
0.029412
0.014706
0.029412
0.000000
0.000000
0.014706
0.088235
0.220588
0.161765
0.132353
0.058824
0.000000
0.000000
0.014706
0.014706
0.014706
0.044118
0.058824
0.073529
0.073529
0.044118
0.058824
0.029412
0.029412
0.117647
0.073529
0.044118
0.029412
0.029412
0.029412
0.014706
0.014706
0.073529
0.029412
0.044118
0.014706
0.058824
0.000000
0.000000
0.000000
0.000000
0.000000
0.000000
0.014706
0.000000
0.014706
0.029412
0.029412
0.029412
0.044118
0.044118
0.000000
0.014706
0.014706
0.014706
0.000000
0.029412
0.029412
0.088235
0.073529
0.058824
0.132353
0.044118
0.014706
0.014706
0.000000
0.000000
0.000000
0.000000
0.000000
0.000000
0.000000
0.000000
0.000000
0.000000
0.000000
0.000000
0.000000
0.000000
0.000000
0.000000
0.000000
0.000000
0.000000
0.000000
0.044118
0.014706
0.014706
0.000000
0.000000
0.000000
0.000000
0.000000
0.000000
0.000000
0.000000
0.000000
0.000000
0.000000
0.000000
0.000000
0.000000
0.000000
0.000000
0.000000
0.000000
0.000000
0.000000
0.000000
0.000000
0.000000
0.000000
0.000000
0.000000
0.000000
0.000000
0.000000
0.000000
0.000000
0.000000
0.000000
0.000000
0.000000
0.000000
0.000000
0.000000
0.000000
0.000000
0.000000
0.000000
0.000000
0.000000
0.000000
0.000000
0.000000
0.000000
0.044118
0.000000
0.102941
0.044118
0.044118
0.000000
0.102941
0.044118
0.000000
0.176471
0.308824
0.176471
0.411765
0.176471
0.000000
0.000000
0.000000
0.044118
0.000000
0.000000
0.000000
0.000000
0.000000
0.000000
0.000000
0.000000
0.000000
0.000000
0.000000
0.000000
0.000000
0.000000
0.000000
0.000000
0.000000
0.000000
0.000000
0.000000
0.000000
0.000000
0.000000
0.000000
0.000000
0.000000
0.000000
0.000000
0.000000
0.000000
0.000000
0.000000
0.000000
0.000000
0.000000
0.000000
0.000000
0.000000
0.029412
0.015385
0.000000
0.000000
0.000000
0.000000
0.000000
0.058824
0.058824
0.058824
0.029412
0.058824
0.058824
0.030769
0.073529
0.058824
0.061538
0.046154
0.061538
0.049180
0.032787
0.088235
0.088235
0.088235
0.073529
0.117647
0.117647
0.061538
0.000000
0.000000
0.000000
0.000000
0.000000
0.058824
0.117647
0.058824
0.058824
0.058824
0.044118
0.073529
0.117647
0.485294
0.073529
0.058824
0.088235
0.058824
0.073529
0.073529
0.044118
0.088235
0.088235
0.455882
0.117647
0.205882
0.191176
0.000000
0.000000
0.000000
0.000000
0.000000
0.049180
0.000000
0.000000
0.000000
0.049180
0.000000
0.000000
0.076923
0.102941
0.092308
0.161765
0.112903
0.000000
0.000000
0.000000
0.000000
0.000000
0.000000
0.000000
0.000000
0.000000
0.000000
0.000000
0.000000
0.000000
0.000000
0.000000
0.049180
0.049180
0.000000
0.000000
0.000000
0.000000
0.000000
0.107692
0.092308
0.117647
0.076923
0.132353
0.000000
0.000000
0.000000
0.000000
0.000000
0.049180
0.049180
0.046154
0.061538
0.073529
0.061538
0.073529
0.088235
0.061538
0.030769
0.044118
0.058824
0.058824
0.044118
0.058824
0.073529
0.088235
0.088235
0.102941
0.073529
0.132353
0.000000
0.000000
0.000000
0.000000
0.000000
0.000000
0.000000
0.000000
0.000000
0.000000
0.000000
0.016393
0.000000
0.000000
0.000000
0.000000
0.000000
0.015385
0.000000
0.014706
0.000000
0.014706
0.147059
0.088235
0.455882
0.088235
0.102941
0.088235
0.455882
0.102941
0.132353
0.102941
0.058824
0.117647
0.058824
0.058824
0.470588
0.058824
0.088235
0.058824
0.058824
0.044118
0.044118
0.044118
0.000000
0.000000
0.000000
0.000000
0.000000
0.000000
0.000000
0.000000
0.000000
0.000000
0.000000
0.000000
0.000000
0.000000
0.000000
0.000000
0.000000
0.000000
0.014706
0.029412
0.014706
0.000000
0.000000
0.000000
0.014706
0.029412
0.044118
0.029412
0.044118
0.029412
0.058824
0.073529
0.029412
0.058824
0.073529
0.073529
0.044118
0.058824
0.073529
0.029412
0.014706
0.014706
0.000000
0.014706
0.000000
0.000000
0.014706
0.029412
0.044118
0.029412
0.073529
0.044118
0.058824
0.073529
0.426471
0.058824
0.058824
0.044118
0.058824
0.073529
0.014706
0.014706
0.029412
0.029412
0.014706
0.029412
0.088235
0.088235
0.058824
0.044118
0.058824
0.058824
0.029412
0.014706
0.014706
0.000000
0.014706
0.000000
0.058824
0.044118
0.073529
0.044118
0.029412
0.014706
0.014706
0.000000
0.014706
0.000000
0.000000
0.029412
0.000000
0.000000
0.000000
0.000000
0.000000
0.029412
0.014706
0.014706
0.000000
0.044118
0.000000
0.000000
0.000000
0.000000
0.000000
0.000000
0.000000
0.000000
0.000000
0.000000
0.016393
0.000000
0.000000
0.000000
0.000000
0.000000
0.000000
0.000000
0.015385
0.014706
0.030769
0.044118
0.000000
0.000000
0.000000
0.000000
0.000000
0.049180
0.049180
0.061538
0.061538
0.073529
0.061538
0.088235
0.073529
0.046154
0.076923
0.088235
0.132353
0.088235
0.191176
0.205882
0.147059
0.044118
0.058824
0.058824
0.073529
0.058824
0.000000
0.000000
0.000000
0.000000
0.000000
0.000000
0.000000
0.000000
0.000000
0.000000
0.049180
0.049180
0.000000
0.000000
0.000000
0.000000
0.000000
0.092308
0.107692
0.147059
0.112903
0.220588
0.058824
0.073529
0.500000
0.102941
0.058824
0.147059
0.470588
0.147059
0.058824
0.235294
0.441176
0.426471
0.191176
0.250000
0.455882
0.264706
0.279412
0.088235
0.220588
0.088235
0.279412
0.117647
0.000000
0.000000
0.000000
0.000000
0.000000
0.000000
0.000000
0.000000
0.000000
0.000000
0.000000
0.000000
0.000000
0.000000
0.000000
0.000000
0.000000
0.000000
0.000000
0.000000
0.000000
0.000000
0.000000
0.000000
0.000000
0.000000
0.000000
0.000000
0.000000
0.000000
0.000000
0.000000
0.000000
0.000000
0.000000
0.000000
0.000000
0.000000
0.000000
0.000000
0.000000
0.000000
0.000000
0.000000
0.000000
0.000000
0.000000
0.000000
0.000000
0.000000
0.000000
0.014706
0.000000
0.014706
0.000000
0.000000
0.000000
0.000000
0.000000
0.000000
0.029412
0.029412
0.014706
0.044118
0.000000
0.000000
0.000000
0.000000
0.000000
0.000000
0.000000
0.000000
0.044118
0.000000
0.102941
0.000000
0.044118
0.102941
0.102941
0.102941
0.176471
0.176471
0.000000
0.000000
0.044118
0.000000
0.102941
0.308824
0.308824
0.426471
0.308824
0.573529
0.000000
0.121951
0.068182
0.279070
0.132075
0.465116
0.360000
0.392857
0.267857
0.285714
0.459016
0.180328
0.209302
0.139535
0.200000
0.069767
0.178571
0.230769
0.338462
0.264706
0.338462
0.294118
0.000000
0.000000
0.000000
0.053571
0.000000
0.000000
0.131148
0.000000
0.030769
0.058824
0.076923
0.073529
0.102941
0.184615
0.000000
0.014706
0.014706
0.014706
0.029412
0.029412
0.088235
0.294118
0.205882
0.382353
0.161765
0.470588
0.000000
0.000000
0.000000
0.000000
0.000000
0.000000
0.000000
0.000000
0.000000
0.000000
0.000000
0.000000
0.000000
0.000000
0.000000
0.000000
0.000000
0.000000
0.000000
0.014706
0.000000
0.029412
0.323529
0.294118
0.397059
0.117647
0.294118
0.102941
0.132353
0.132353
0.147059
0.029412
0.073529
0.235294
0.044118
0.014706
0.014706
0.000000
0.014706
0.176471
0.147059
0.191176
0.058824
0.102941
0.000000
0.000000
0.000000
0.000000
0.000000
0.000000
0.000000
0.000000
0.000000
0.014706
0.000000
0.000000
0.014706
0.000000
0.000000
0.000000
0.014706
0.014706
0.044118
0.058824
0.014706
0.000000
0.014706
0.000000
0.014706
0.014706
0.117647
0.044118
0.058824
0.014706
0.132353
0.073529
0.014706
0.117647
0.029412
0.044118
0.029412
0.058824
0.073529
0.029412
0.176471
0.102941
0.117647
0.088235
0.176471
0.102941
0.102941
0.029412
0.000000
0.044118
0.029412
0.014706
0.161765
0.205882
0.294118
0.205882
0.264706
0.279412
0.205882
0.220588
0.308824
0.308824
0.294118
0.250000
0.308824
0.220588
0.102941
0.147059
0.044118
0.117647
0.014706
0.000000
0.147059
0.264706
0.411765
0.235294
0.338235
0.264706
0.029412
0.014706
0.029412
0.044118
0.044118
0.088235
0.029412
0.014706
0.029412
0.029412
0.014706
0.014706
0.073529
0.044118
0.073529
0.029412
0.058824
0.014706
0.014706
0.044118
0.029412
0.044118
0.000000
0.000000
0.000000
0.000000
0.000000
0.000000
0.000000
0.000000
0.000000
0.000000
0.000000
0.000000
0.000000
0.000000
0.000000
0.000000
0.000000
0.000000
0.000000
0.014706
0.000000
0.044118
0.046512
0.020000
0.071429
0.017857
0.178571
0.147541
0.016393
0.276923
0.107692
0.117647
0.076923
0.147059
0.102941
0.015385
0.338462
0.485294
0.338235
0.382353
0.250000
0.455882
0.264706
0.000000
0.058824
0.029412
0.161765
0.088235
0.139535
0.232558
0.200000
0.465116
0.285714
0.279070
0.380000
0.250000
0.357143
0.132075
0.163934
0.426230
0.121951
0.000000
0.068182
0.292308
0.200000
0.220588
0.176471
0.294118
0.294118
0.191176
0.205882
0.235294
0.191176
0.161765
0.205882
0.220588
0.088235
0.132353
0.250000
0.250000
0.411765
0.058824
0.073529
0.029412
0.014706
0.029412
0.000000
0.014706
0.014706
0.044118
0.000000
0.000000
0.014706
0.058824
0.058824
0.000000
0.029412
0.073529
0.044118
0.176471
0.102941
0.000000
0.000000
0.000000
0.058824
0.000000
0.250000
0.235294
0.294118
0.279412
0.426471
0.382353
0.220588
0.338235
0.382353
0.397059
0.338235
0.411765
0.382353
0.161765
0.264706
0.264706
0.161765
0.294118
0.044118
0.058824
0.367647
0.102941
0.176471
0.058824
0.323529
0.029412
0.382353
0.441176
0.602941
0.250000
0.279412
0.161765
0.176471
0.073529
0.176471
0.000000
0.029412
0.191176
0.044118
0.000000
0.000000
0.117647
0.029412
0.044118
0.088235
0.264706
0.161765
0.485294
0.294118
0.441176
0.544118
0.411765
0.529412
0.191176
0.323529
0.397059
0.220588
0.088235
0.132353
0.558824
0.426471
0.588235
VECTORS displacements double 
-0.002495 0.000000 0.000000 
0.002495 0.000000 0.000000 
0.002495 0.000000 0.000000 
-0.002495 0.000000 0.000000 
-0.002495 0.000000 0.000000 
-0.002495 0.000000 0.000000 
-0.002495 0.000000 0.000000 
-0.002495 0.000000 0.000000 
0.001886 0.004475 0.000036 
-0.000528 0.003631 -0.000121 
-0.000456 0.003304 -0.000081 
-0.000464 0.002863 -0.000114 
-0.000483 0.002764 -0.000139 
-0.000445 0.002658 -0.000128 
-0.000405 0.002544 -0.000194 
-0.000418 0.002507 -0.000319 
-0.000358 0.002495 -0.000277 
-0.000328 0.002568 -0.000036 
-0.000295 0.002597 0.000034 
-0.000263 0.002723 -0.000053 
-0.000251 0.002838 -0.000120 
-0.000205 0.002928 -0.000049 
-0.000222 0.003068 -0.000216 
-0.000210 0.003169 -0.000313 
-0.000252 0.003286 -0.000236 
-0.000183 0.003450 -0.000133 
-0.000200 0.003559 0.000001 
-0.000167 0.003748 -0.000018 
-0.000125 0.003931 0.000116 
-0.000081 0.004360 0.000048 