# vtk DataFile Version 2.0
Solution time step = 499 
ASCII

DATASET UNSTRUCTURED_GRID
POINTS 2113 double
0.000000 0.000000 0.000000 
1.000000 0.000000 0.000000 
1.000000 1.000000 0.000000 
0.000000 1.000000 0.000000 
0.031250 0.000000 0.000000 
0.062500 0.000000 0.000000 
0.093750 0.000000 0.000000 
0.125000 0.000000 0.000000 
0.156250 0.000000 0.000000 
0.187500 0.000000 0.000000 
0.218750 0.000000 0.000000 
0.250000 0.000000 0.000000 
0.281250 0.000000 0.000000 
0.312500 0.000000 0.000000 
0.343750 0.000000 0.000000 
0.375000 0.000000 0.000000 
0.406250 0.000000 0.000000 
0.437500 0.000000 0.000000 
0.468750 0.000000 0.000000 
0.500000 0.000000 0.000000 
0.531250 0.000000 0.000000 
0.562500 0.000000 0.000000 
0.593750 0.000000 0.000000 
0.625000 0.000000 0.000000 
0.656250 0.000000 0.000000 
0.687500 0.000000 0.000000 
0.718750 0.000000 0.000000 
0.750000 0.000000 0.000000 
0.781250 0.000000 0.000000 
0.812500 0.000000 0.000000 
0.843750 0.000000 0.000000 
0.875000 0.000000 0.000000 
0.906250 0.000000 0.000000 
0.937500 0.000000 0.000000 
0.968750 0.000000 0.000000 
1.000000 0.031250 0.000000 
1.000000 0.062500 0.000000 
1.000000 0.093750 0.000000 
1.000000 0.125000 0.000000 
1.000000 0.156250 0.000000 
1.000000 0.187500 0.000000 
1.000000 0.218750 0.000000 
1.000000 0.250000 0.000000 
1.000000 0.281250 0.000000 
1.000000 0.312500 0.000000 
1.000000 0.343750 0.000000 
1.000000 0.375000 0.000000 
1.000000 0.406250 0.000000 
1.000000 0.437500 0.000000 
1.000000 0.468750 0.000000 
1.000000 0.500000 0.000000 
1.000000 0.531250 0.000000 
1.000000 0.562500 0.000000 
1.000000 0.593750 0.000000 
1.000000 0.625000 0.000000 
1.000000 0.656250 0.000000 
1.000000 0.687500 0.000000 
1.000000 0.718750 0.000000 
1.000000 0.750000 0.000000 
1.000000 0.781250 0.000000 
1.000000 0.812500 0.000000 
1.000000 0.843750 0.000000 
1.000000 0.875000 0.000000 
1.000000 0.906250 0.000000 
1.000000 0.937500 0.000000 
1.000000 0.968750 0.000000 
0.968750 1.000000 0.000000 
0.937500 1.000000 0.000000 
0.906250 1.000000 0.000000 
0.875000 1.000000 0.000000 
0.843750 1.000000 0.000000 
0.812500 1.000000 0.000000 
0.781250 1.000000 0.000000 
0.750000 1.000000 0.000000 
0.718750 1.000000 0.000000 
0.687500 1.000000 0.000000 
0.656250 1.000000 0.000000 
0.625000 1.000000 0.000000 
0.593750 1.000000 0.000000 
0.562500 1.000000 0.000000 
0.531250 1.000000 0.000000 
0.500000 1.000000 0.000000 
0.468750 1.000000 0.000000 
0.437500 1.000000 0.000000 
0.406250 1.000000 0.000000 
0.375000 1.000000 0.000000 
0.343750 1.000000 0.000000 
0.312500 1.000000 0.000000 
0.281250 1.000000 0.000000 
0.250000 1.000000 0.000000 
0.218750 1.000000 0.000000 
0.187500 1.000000 0.000000 
0.156250 1.000000 0.000000 
0.125000 1.000000 0.000000 
0.093750 1.000000 0.000000 
0.062500 1.000000 0.000000 
0.031250 1.000000 0.000000 
0.000000 0.968750 0.000000 
0.000000 0.937500 0.000000 
0.000000 0.906250 0.000000 
0.000000 0.875000 0.000000 
0.000000 0.843750 0.000000 
0.000000 0.812500 0.000000 
0.000000 0.781250 0.000000 
0.000000 0.750000 0.000000 
0.000000 0.718750 0.000000 
0.000000 0.687500 0.000000 
0.000000 0.656250 0.000000 
0.000000 0.625000 0.000000 
0.000000 0.593750 0.000000 
0.000000 0.562500 0.000000 
0.000000 0.531250 0.000000 
0.000000 0.500000 0.000000 
0.000000 0.468750 0.000000 
0.000000 0.437500 0.000000 
0.000000 0.406250 0.000000 
0.000000 0.375000 0.000000 
0.000000 0.343750 0.000000 
0.000000 0.312500 0.000000 
0.000000 0.281250 0.000000 
0.000000 0.250000 0.000000 
0.000000 0.218750 0.000000 
0.000000 0.187500 0.000000 
0.000000 0.156250 0.000000 
0.000000 0.125000 0.000000 
0.000000 0.093750 0.000000 
0.000000 0.062500 0.000000 
0.000000 0.031250 0.000000 
0.500000 0.500000 0.000000 
0.750000 0.250000 0.000000 
0.250000 0.250000 0.000000 
0.250000 0.750000 0.000000 
0.750000 0.750000 0.000000 
0.375000 0.125000 0.000000 
0.125000 0.125000 0.000000 
0.625000 0.125000 0.000000 
0.500000 0.250000 0.000000 
0.875000 0.125000 0.000000 
0.625000 0.375000 0.000000 
0.375000 0.375000 0.000000 
0.125000 0.375000 0.000000 
0.250000 0.500000 0.000000 
0.125000 0.625000 0.000000 
0.375000 0.625000 0.000000 
0.125000 0.875000 0.000000 
0.875000 0.375000 0.000000 
0.875000 0.625000 0.000000 
0.750000 0.500000 0.000000 
0.875000 0.875000 0.000000 
0.625000 0.625000 0.000000 
0.625000 0.875000 0.000000 
0.375000 0.875000 0.000000 
0.500000 0.750000 0.000000 
0.187500 0.062500 0.000000 
0.062500 0.062500 0.000000 
0.312500 0.062500 0.000000 
0.250000 0.125000 0.000000 
0.437500 0.062500 0.000000 
0.312500 0.187500 0.000000 
0.187500 0.187500 0.000000 
0.562500 0.062500 0.000000 
0.500000 0.125000 0.000000 
0.562500 0.187500 0.000000 
0.437500 0.187500 0.000000 
0.687500 0.187500 0.000000 
0.625000 0.250000 0.000000 
0.375000 0.250000 0.000000 
0.687500 0.062500 0.000000 
0.812500 0.062500 0.000000 
0.750000 0.125000 0.000000 
0.937500 0.062500 0.000000 
0.812500 0.187500 0.000000 
0.437500 0.312500 0.000000 
0.312500 0.312500 0.000000 
0.562500 0.312500 0.000000 
0.500000 0.375000 0.000000 
0.687500 0.312500 0.000000 
0.562500 0.437500 0.000000 
0.437500 0.437500 0.000000 
0.062500 0.187500 0.000000 
0.125000 0.250000 0.000000 
0.062500 0.312500 0.000000 
0.187500 0.312500 0.000000 
0.062500 0.437500 0.000000 
0.250000 0.375000 0.000000 
0.187500 0.437500 0.000000 
0.187500 0.562500 0.000000 
0.125000 0.500000 0.000000 
0.250000 0.625000 0.000000 
0.187500 0.687500 0.000000 
0.062500 0.562500 0.000000 
0.312500 0.437500 0.000000 
0.375000 0.500000 0.000000 
0.312500 0.562500 0.000000 
0.437500 0.562500 0.000000 
0.312500 0.687500 0.000000 
0.062500 0.687500 0.000000 
0.125000 0.750000 0.000000 
0.062500 0.812500 0.000000 
0.187500 0.812500 0.000000 
0.062500 0.937500 0.000000 
0.937500 0.187500 0.000000 
0.937500 0.312500 0.000000 
0.875000 0.250000 0.000000 
0.937500 0.437500 0.000000 
0.812500 0.312500 0.000000 
0.937500 0.562500 0.000000 
0.875000 0.500000 0.000000 
0.812500 0.562500 0.000000 
0.812500 0.437500 0.000000 
0.812500 0.687500 0.000000 
0.750000 0.625000 0.000000 
0.750000 0.375000 0.000000 
0.937500 0.687500 0.000000 
0.937500 0.812500 0.000000 
0.875000 0.750000 0.000000 
0.937500 0.937500 0.000000 
0.812500 0.812500 0.000000 
0.687500 0.437500 0.000000 
0.687500 0.562500 0.000000 
0.625000 0.500000 0.000000 
0.687500 0.687500 0.000000 
0.562500 0.562500 0.000000 
0.812500 0.937500 0.000000 
0.687500 0.937500 0.000000 
0.750000 0.875000 0.000000 
0.562500 0.937500 0.000000 
0.687500 0.812500 0.000000 
0.437500 0.937500 0.000000 
0.500000 0.875000 0.000000 
0.437500 0.812500 0.000000 
0.562500 0.812500 0.000000 
0.312500 0.812500 0.000000 
0.375000 0.750000 0.000000 
0.625000 0.750000 0.000000 
0.312500 0.937500 0.000000 
0.187500 0.937500 0.000000 
0.250000 0.875000 0.000000 
0.562500 0.687500 0.000000 
0.437500 0.687500 0.000000 
0.500000 0.625000 0.000000 
0.093750 0.031250 0.000000 
0.031250 0.031250 0.000000 
0.156250 0.031250 0.000000 
0.125000 0.062500 0.000000 
0.218750 0.031250 0.000000 
0.156250 0.093750 0.000000 
0.093750 0.093750 0.000000 
0.281250 0.031250 0.000000 
0.250000 0.062500 0.000000 
0.281250 0.093750 0.000000 
0.218750 0.093750 0.000000 
0.343750 0.093750 0.000000 
0.312500 0.125000 0.000000 
0.187500 0.125000 0.000000 
0.343750 0.031250 0.000000 
0.406250 0.031250 0.000000 
0.375000 0.062500 0.000000 
0.468750 0.031250 0.000000 
0.406250 0.093750 0.000000 
0.218750 0.156250 0.000000 
0.156250 0.156250 0.000000 
0.281250 0.156250 0.000000 
0.250000 0.187500 0.000000 
0.343750 0.156250 0.000000 
0.281250 0.218750 0.000000 
0.218750 0.218750 0.000000 
0.531250 0.031250 0.000000 
0.500000 0.062500 0.000000 
0.531250 0.093750 0.000000 
0.468750 0.093750 0.000000 
0.593750 0.093750 0.000000 
0.562500 0.125000 0.000000 
0.437500 0.125000 0.000000 
0.593750 0.156250 0.000000 
0.531250 0.156250 0.000000 
0.500000 0.187500 0.000000 
0.468750 0.156250 0.000000 
0.531250 0.218750 0.000000 
0.468750 0.218750 0.000000 
0.406250 0.156250 0.000000 
0.656250 0.156250 0.000000 
0.625000 0.187500 0.000000 
0.656250 0.218750 0.000000 
0.593750 0.218750 0.000000 
0.718750 0.218750 0.000000 
0.687500 0.250000 0.000000 
0.562500 0.250000 0.000000 
0.375000 0.187500 0.000000 
0.406250 0.218750 0.000000 
0.343750 0.218750 0.000000 
0.437500 0.250000 0.000000 
0.312500 0.250000 0.000000 
0.593750 0.031250 0.000000 
0.656250 0.031250 0.000000 
0.625000 0.062500 0.000000 
0.718750 0.031250 0.000000 
0.656250 0.093750 0.000000 
0.781250 0.031250 0.000000 
0.750000 0.062500 0.000000 
0.781250 0.093750 0.000000 
0.718750 0.093750 0.000000 
0.843750 0.093750 0.000000 
0.812500 0.125000 0.000000 
0.687500 0.125000 0.000000 
0.843750 0.031250 0.000000 
0.906250 0.031250 0.000000 
0.875000 0.062500 0.000000 
0.968750 0.031250 0.000000 
0.906250 0.093750 0.000000 
0.718750 0.156250 0.000000 
0.781250 0.156250 0.000000 
0.750000 0.187500 0.000000 
0.843750 0.156250 0.000000 
0.781250 0.218750 0.000000 
0.343750 0.281250 0.000000 
0.281250 0.281250 0.000000 
0.406250 0.281250 0.000000 
0.375000 0.312500 0.000000 
0.468750 0.281250 0.000000 
0.406250 0.343750 0.000000 
0.343750 0.343750 0.000000 
0.531250 0.281250 0.000000 
0.500000 0.312500 0.000000 
0.531250 0.343750 0.000000 
0.468750 0.343750 0.000000 
0.593750 0.343750 0.000000 
0.562500 0.375000 0.000000 
0.437500 0.375000 0.000000 
0.593750 0.281250 0.000000 
0.656250 0.281250 0.000000 
0.625000 0.312500 0.000000 
0.718750 0.281250 0.000000 
0.656250 0.343750 0.000000 
0.468750 0.406250 0.000000 
0.406250 0.406250 0.000000 
0.531250 0.406250 0.000000 
0.500000 0.437500 0.000000 
0.593750 0.406250 0.000000 
0.531250 0.468750 0.000000 
0.468750 0.468750 0.000000 
0.031250 0.093750 0.000000 
0.062500 0.125000 0.000000 
0.031250 0.156250 0.000000 
0.093750 0.156250 0.000000 
0.031250 0.218750 0.000000 
0.125000 0.187500 0.000000 
0.093750 0.218750 0.000000 
0.093750 0.281250 0.000000 
0.062500 0.250000 0.000000 
0.125000 0.312500 0.000000 
0.093750 0.343750 0.000000 
0.031250 0.281250 0.000000 
[...]
POINT_DATA 2113
SCALARS damage double
LOOKUP_TABLE default
0.000000
0.000000
0.000000
0.000000
0.000000
0.060606
0.189189
0.378378
0.351351
0.243243
0.108108
0.000000
0.000000
0.000000
0.000000
0.000000
0.000000
0.000000
0.000000
0.000000
0.000000
0.000000
0.000000
0.000000
0.000000
0.000000
0.000000
0.000000
0.108108
0.189189
0.351351
0.378378
0.189189
0.060606
0.000000
0.000000
0.000000
0.000000
0.000000
0.000000
0.000000
0.000000
0.000000
0.000000
0.000000
0.000000
0.000000
0.000000
0.000000
0.000000
0.000000
0.000000
0.000000
0.000000
0.000000
0.000000
0.000000
0.000000
0.000000
0.000000
0.000000
0.000000
0.000000
0.000000
0.000000
0.000000
0.000000
0.060606
0.189189
0.378378
0.324324
0.162162
0.081081
0.000000
0.000000
0.000000
0.000000
0.000000
0.000000
0.000000
0.000000
0.000000
0.000000
0.000000
0.000000
0.000000
0.000000
0.000000
0.000000
0.000000
0.081081
0.135135
0.405405
0.378378
0.189189
0.060606
0.000000
0.000000
0.000000
0.000000
0.000000
0.000000
0.000000
0.000000
0.000000
0.000000
0.000000
0.000000
0.000000
0.000000
0.000000
0.000000
0.000000
0.000000
0.000000
0.000000
0.000000
0.000000
0.000000
0.000000
0.000000
0.000000
0.000000
0.000000
0.000000
0.000000
0.000000
0.000000
0.558824
0.102941
0.044118
0.088235
0.044118
0.058824
0.205882
0.000000
0.161765
0.235294
0.000000
0.000000
0.029412
0.000000
0.058824
0.000000
0.250000
0.058824
0.029412
0.000000
0.161765
0.000000
0.044118
0.014706
0.205882
0.327869
0.055556
0.000000
0.147059
0.000000
0.279412
0.455882
0.000000
0.014706
0.044118
0.073529
0.044118
0.058824
0.294118
0.000000
0.245902
0.102941
0.055556
0.397059
0.294118
0.000000
0.117647
0.573529
0.000000
0.176471
0.102941
0.049180
0.073529
0.016393
0.029412
0.000000
0.014706
0.058824
0.073529
0.014706
0.014706
0.058824
0.000000
0.000000
0.000000
0.000000
0.102941
0.000000
0.032787
0.102941
0.049180
0.411765
0.055556
0.049180
0.049180
0.117647
0.000000
0.132353
0.000000
0.014706
0.058824
0.044118
0.029412
0.000000
0.000000
0.016393
0.049180
0.073529
0.055556
0.397059
0.000000
0.000000
0.000000
0.000000
0.176471
0.278689
0.000000
0.191176
0.000000
0.205882
0.000000
0.000000
0.029412
0.205882
0.014706
0.014706
0.250000
0.000000
0.229508
0.117647
0.323529
0.073529
0.529412
0.200000
0.000000
0.400000
0.295082
0.120000
0.455882
0.161765
0.000000
0.032787
0.073529
0.161765
0.000000
0.058824
0.264706
0.000000
0.000000
0.000000
0.000000
0.000000
0.323529
0.441176
0.352941
0.191176
0.147059
0.117647
0.058824
0.000000
0.000000
0.000000
0.000000
0.000000
0.000000
0.000000
0.014706
0.014706
0.058824
0.014706
0.088235
0.132353
0.073529
0.014706
0.044118
0.044118
0.102941
0.102941
0.044118
0.102941
0.220588
0.235294
0.308824
0.250000
0.117647
0.000000
0.000000
0.000000
0.000000
0.000000
0.100000
0.032787
0.161765
0.044118
0.455882
0.367647
0.000000
0.380000
0.200000
0.311475
0.000000
0.161765
0.117647
0.205882
0.147059
0.441176
0.250000
0.132353
0.000000
0.264706
0.132353
0.323529
0.117647
0.000000
0.264706
0.279412
0.250000
0.382353
0.029412
0.132353
0.176471
0.117647
0.014706
0.029412
0.044118
0.000000
0.323529
0.000000
0.397059
0.558824
0.044118
0.426471
0.308824
0.000000
0.049180
0.000000
0.102941
0.000000
0.147059
0.073529
0.044118
0.049180
0.058824
0.014706
0.000000
0.470588
0.058824
0.500000
0.073529
0.102941
0.000000
0.000000
0.000000
0.000000
0.000000
0.014706
0.029412
0.014706
0.044118
0.000000
0.000000
0.044118
0.000000
0.044118
0.044118
0.044118
0.058824
0.014706
0.014706
0.000000
0.029412
0.044118
0.029412
0.044118
0.117647
0.147059
0.000000
0.000000
0.000000
0.000000
0.000000
0.000000
0.000000
0.000000
0.000000
0.000000
0.000000
0.000000
0.000000
0.000000
0.000000
0.000000
0.000000
0.000000
0.102941
0.000000
0.308824
0.000000
0.000000
0.000000
0.000000
0.000000
0.029412
0.000000
0.000000
0.000000
0.044118
0.000000
0.058824
0.058824
0.073529
0.049180
0.176471
0.088235
0.000000
0.485294
0.426471
0.455882
0.294118
0.455882
0.000000
0.049180
0.000000
0.147059
0.000000
0.000000
0.000000
0.049180
0.000000
0.117647
0.000000
0.049180
0.073529
0.088235
0.044118
0.073529
0.176471
0.000000
0.000000
0.016393
0.000000
0.014706
0.455882
0.470588
0.455882
0.500000
0.088235
0.000000
0.000000
0.000000
0.000000
0.000000
0.014706
0.029412
0.044118
0.044118
0.044118
0.044118
0.000000
0.000000
0.073529
0.073529
0.044118
0.029412
0.000000
0.029412
0.000000
0.000000
0.029412
0.029412
0.058824
0.000000
0.058824
0.000000
0.000000
0.000000
0.000000
0.014706
0.000000
0.049180
0.073529
0.044118
0.073529
0.088235
0.058824
0.000000
0.000000
0.049180
0.000000
0.117647
0.485294
0.470588
0.058824
0.455882
0.073529
0.000000
0.000000
0.000000
0.000000
0.000000
0.000000
0.000000
0.000000
0.000000
0.000000
0.000000
0.000000
0.000000
0.000000
0.000000
0.000000
0.000000
0.044118
0.044118
0.176471
0.044118
0.426471
0.200000
0.380000
0.245902
0.120000
0.426471
0.000000
0.049180
0.058824
0.220588
0.000000
0.073529
0.455882
0.000000
0.000000
0.000000
0.000000
0.000000
0.279412
0.308824
0.147059
0.191176
0.073529
0.000000
0.000000
0.014706
0.000000
0.000000
0.014706
0.014706
0.014706
0.029412
0.073529
0.058824
0.058824
0.220588
0.147059
0.029412
0.029412
0.029412
0.029412
0.132353
0.014706
0.044118
0.426471
0.397059
0.235294
0.397059
0.029412
0.000000
0.000000
0.000000
0.000000
0.014706
0.120000
0.000000
0.132353
0.029412
0.441176
0.338235
0.000000
0.400000
0.200000
0.278689
0.088235
0.235294
0.147059
0.073529
0.235294
0.102941
0.308824
0.132353
0.176471
0.308824
0.235294
0.397059
0.000000
0.088235
0.220588
0.029412
0.000000
0.000000
0.426471
0.308824
0.558824
0.000000
0.000000
0.121951
0.068182
0.279070
0.132075
0.000000
0.465116
0.380000
0.375000
0.250000
0.285714
0.459016
0.163934
0.232558
0.162791
0.200000
0.046512
0.196429
0.215385
0.112903
0.307692
0.235294
0.338462
0.279412
0.161765
0.000000
0.000000
0.017857
0.053571
0.000000
0.032787
0.147541
0.015385
0.092308
0.102941
0.123077
0.117647
0.147059
0.261538
0.000000
0.014706
0.000000
0.044118
0.014706
0.044118
0.147059
0.441176
0.382353
0.382353
0.367647
0.441176
0.000000
0.000000
0.000000
0.000000
0.000000
0.000000
0.000000
0.000000
0.000000
0.000000
0.000000
0.000000
0.000000
0.000000
0.000000
0.000000
0.000000
0.000000
0.000000
0.000000
0.000000
0.000000
0.352941
0.220588
0.294118
0.352941
0.205882
0.220588
0.250000
0.176471
0.279412
0.279412
0.250000
0.279412
0.220588
0.117647
0.161765
0.117647
0.205882
0.088235
0.205882
0.132353
0.102941
0.132353
0.102941
0.205882
0.058824
0.058824
0.000000
0.000000
0.000000
0.000000
0.000000
0.000000
0.000000
0.000000
0.000000
0.000000
0.000000
0.000000
0.000000
0.000000
0.000000
0.000000
0.000000
0.000000
0.000000
0.000000
0.000000
0.000000
0.000000
0.000000
0.014706
0.014706
0.029412
0.014706
0.014706
0.000000
0.044118
0.044118
0.000000
0.029412
0.029412
0.029412
0.014706
0.058824
0.029412
0.000000
0.044118
0.058824
0.088235
0.102941
0.102941
0.132353
0.102941
0.014706
0.014706
0.029412
0.088235
0.058824
0.014706
0.029412
0.044118
0.029412
0.014706
0.058824
0.044118
0.058824
0.073529
0.088235
0.058824
0.073529
0.088235
0.044118
0.073529
0.044118
0.058824
0.044118
0.102941
0.058824
0.058824
0.073529
0.088235
0.073529
0.088235
0.102941
0.117647
0.117647
0.191176
0.147059
0.264706
0.191176
0.205882
0.279412
0.294118
0.250000
0.279412
0.279412
0.205882
0.161765
0.250000
0.220588
0.308824
0.205882
0.205882
0.117647
0.205882
0.044118
0.000000
0.000000
0.000000
0.000000
0.000000
0.000000
0.000000
0.000000
0.000000
0.000000
0.000000
0.000000
0.000000
0.000000
0.000000
0.000000
0.000000
0.000000
0.000000
0.000000
0.000000
0.000000
0.046512
0.000000
0.053571
0.000000
0.160714
0.131148
0.000000
0.200000
0.123077
0.088235
0.046154
0.132353
0.088235
0.000000
0.323077
0.367647
0.338235
0.279412
0.308824
0.441176
0.176471
0.000000
0.014706
0.000000
0.088235
0.000000
0.139535
0.232558
0.200000
0.465116
0.285714
0.279070
0.360000
0.250000
0.392857
0.132075
0.163934
0.442623
0.121951
0.000000
0.068182
0.000000
0.000000
0.338462
0.215385
0.250000
0.112903
0.176471
0.014706
0.044118
0.014706
0.132353
0.058824
0.147059
0.117647
0.161765
0.147059
0.323529
0.220588
0.102941
0.382353
0.338235
0.382353
0.264706
0.294118
0.161765
0.161765
0.147059
0.294118
0.161765
0.058824
0.014706
0.117647
0.044118
0.191176
0.058824
0.000000
0.308824
0.191176
0.220588
0.161765
0.294118
0.235294
0.044118
0.323529
0.235294
0.308824
0.264706
0.323529
0.044118
0.000000
0.132353
0.044118
0.220588
0.044118
0.000000
0.220588
0.279412
0.352941
0.279412
0.205882
0.294118
0.352941
0.147059
0.367647
0.382353
0.367647
0.352941
0.411765
0.323529
0.088235
0.102941
0.058824
0.176471
0.000000
0.029412
0.352941
0.220588
0.308824
0.147059
0.367647
0.058824
0.161765
0.132353
0.117647
0.088235
0.117647
0.044118
0.029412
0.014706
0.102941
0.000000
0.000000
0.088235
0.029412
0.000000
0.014706
0.044118
0.000000
0.029412
0.000000
0.000000
0.000000
0.000000
0.088235
0.000000
0.220588
0.132353
0.426471
0.191176
0.044118
0.485294
0.558824
0.529412
0.411765
0.294118
0.397059
0.323529
0.250000
0.088235
0.161765
0.000000
0.102941
0.426471
0.176471
0.558824
0.558824
0.308824
0.573529
0.411765
0.000000
0.000000
0.000000
0.000000
0.000000
0.049180
0.000000
0.000000
0.000000
0.049180
0.000000
0.000000
0.107692
0.117647
0.092308
0.132353
0.076923
0.000000
0.000000
0.000000
0.000000
0.000000
0.161765
0.117647
0.102941
0.088235
0.102941
0.073529
0.061538
0.058824
0.058824
0.046154
0.061538
0.030769
0.032787
0.049180
0.073529
0.058824
0.058824
0.044118
0.058824
0.044118
0.015385
0.000000
0.000000
0.000000
0.000000
0.000000
0.191176
0.455882
0.132353
0.161765
0.073529
0.235294
0.102941
0.176471
0.485294
0.058824
0.132353
0.073529
0.073529
0.058824
0.102941
0.073529
0.044118
0.058824
0.161765
0.058824
0.411765
0.044118
0.000000
0.000000
0.000000
0.000000
0.000000
0.000000
0.000000
0.000000
0.000000
0.000000
0.000000
0.000000
0.000000
0.000000
0.000000
0.014706
0.000000
0.000000
0.000000
0.000000
0.000000
0.000000
0.058824
0.044118
0.014706
0.029412
0.014706
0.044118
0.029412
0.029412
0.029412
0.029412
0.044118
0.029412
0.044118
0.029412
0.000000
0.000000
0.000000
0.000000
0.000000
0.000000
0.014706
0.088235
0.117647
0.102941
0.044118
0.029412
0.000000
0.000000
0.014706
0.014706
0.029412
0.044118
0.044118
0.058824
0.073529
0.044118
0.058824
0.029412
0.029412
0.073529
0.088235
0.044118
0.029412
0.029412
0.044118
0.029412
0.014706
0.044118
0.029412
0.029412
0.014706
0.029412
0.000000
0.000000
0.014706
0.014706
0.014706
0.029412
0.029412
0.029412
0.029412
0.029412
0.044118
0.044118
0.044118
0.044118
0.029412
0.058824
0.073529
0.088235
0.058824
0.073529
0.102941
0.117647
0.441176
0.073529
0.132353
0.058824
0.000000
0.000000
0.000000
0.000000
0.000000
0.000000
0.000000
0.000000
0.000000
0.000000
0.000000
0.000000
0.000000
0.000000
0.000000
0.014706
0.000000
0.000000
0.000000
0.000000
0.000000
0.000000
0.014706
0.000000
0.014706
0.000000
0.014706
0.000000
0.000000
0.000000
0.000000
0.000000
0.000000
0.000000
0.000000
0.000000
0.000000
0.000000
0.000000
0.000000
0.000000
0.000000
0.000000
0.000000
0.000000
0.000000
0.000000
0.000000
0.000000
0.000000
0.000000
0.000000
0.000000
0.000000
0.000000
0.000000
0.000000
0.000000
0.000000
0.000000
0.000000
0.000000
0.000000
0.000000
0.000000
0.000000
0.000000
0.000000
0.000000
0.000000
0.000000
0.000000
0.000000
0.044118
0.000000
0.102941
0.044118
0.044118
0.000000
0.102941
0.044118
0.000000
0.176471
0.308824
0.176471
0.426471
0.176471
0.000000
0.000000
0.000000
0.044118
0.000000
0.000000
0.000000
0.000000
0.000000
0.014706
0.000000
0.000000
0.000000
0.000000
0.000000
0.000000
0.014706
0.000000
0.000000
0.000000
0.000000
0.000000
0.029412
0.014706
0.029412
0.000000
0.058824
0.000000
0.000000
0.000000
0.000000
0.000000
0.000000
0.000000
0.000000
0.000000
0.016393
0.000000
0.000000
0.000000
0.014706
0.015385
0.044118
0.030769
0.000000
0.000000
0.000000
0.000000
0.000000
0.058824
0.058824
0.058824
0.044118
0.073529
0.073529
0.046154
0.088235
0.073529
0.061538
0.061538
0.061538
0.049180
0.049180
0.147059
0.102941
0.132353
0.073529
0.205882
0.176471
0.061538
0.000000
0.000000
0.000000
0.000000
0.000000
0.058824
0.500000
0.073529
0.102941
0.102941
0.382353
0.058824
0.132353
0.470588
0.455882
0.220588
0.147059
0.088235
0.088235
0.235294
0.132353
0.264706
0.191176
0.455882
0.250000
0.279412
0.279412
0.000000
0.000000
0.000000
0.000000
0.000000
0.049180
0.000000
0.000000
0.000000
0.049180
0.000000
0.000000
0.076923
0.117647
0.092308
0.176471
0.112903
0.000000
0.000000
0.000000
0.000000
0.000000
0.000000
0.000000
0.000000
0.000000
0.000000
0.000000
0.000000
0.000000
0.000000
0.000000
0.049180
0.049180
0.000000
0.000000
0.000000
0.000000
0.000000
0.107692
0.107692
0.147059
0.092308
0.161765
0.000000
0.000000
0.000000
0.000000
0.000000
0.049180
0.049180
0.061538
0.061538
0.073529
0.061538
0.088235
0.088235
0.076923
0.046154
0.058824
0.058824
0.073529
0.058824
0.058824
0.088235
0.102941
0.102941
0.132353
0.147059
0.176471
0.000000
0.000000
0.000000
0.000000
0.000000
0.000000
0.000000
0.000000
0.000000
0.000000
0.000000
0.032787
0.000000
0.000000
0.000000
0.000000
0.000000
0.030769
0.015385
0.029412
0.000000
0.044118
0.220588
0.176471
0.455882
0.161765
0.220588
0.117647
0.455882
0.073529
0.191176
0.073529
0.411765
0.411765
0.088235
0.073529
0.500000
0.058824
0.088235
0.220588
0.073529
0.102941
0.088235
0.073529
0.000000
0.000000
0.000000
0.000000
0.000000
0.000000
0.000000
0.000000
0.000000
0.000000
0.000000
0.014706
0.000000
0.000000
0.000000
0.000000
0.000000
0.000000
0.000000
0.014706
0.014706
0.000000
0.000000
0.014706
0.014706
0.058824
0.029412
0.029412
0.044118
0.029412
0.073529
0.073529
0.029412
0.058824
0.073529
0.073529
0.058824
0.044118
0.073529
0.029412
0.014706
0.014706
0.000000
0.014706
0.000000
0.000000
0.014706
0.029412
0.044118
0.044118
0.102941
0.058824
0.044118
0.044118
0.102941
0.073529
0.102941
0.044118
0.044118
0.029412
0.014706
0.014706
0.014706
0.014706
0.000000
0.014706
0.029412
0.014706
0.014706
0.014706
0.029412
0.000000
0.000000
0.000000
0.000000
0.000000
0.000000
0.000000
0.132353
0.147059
0.117647
0.044118
0.044118
0.029412
0.029412
0.014706
0.029412
0.029412
0.044118
0.102941
0.000000
0.000000
0.014706
0.000000
0.000000
0.102941
0.058824
0.058824
0.014706
0.058824
0.000000
0.000000
0.000000
0.000000
0.000000
0.000000
0.000000
0.000000
0.000000
0.000000
0.000000
0.000000
0.000000
0.000000
0.000000
0.000000
0.000000
0.000000
0.000000
0.000000
0.015385
0.014706
0.000000
0.000000
0.000000
0.000000
0.000000
0.049180
0.032787
0.061538
0.061538
0.058824
0.046154
0.073529
0.058824
0.030769
0.061538
0.073529
0.088235
0.088235
0.102941
0.117647
0.088235
0.029412
0.044118
0.044118
0.058824
0.058824
0.000000
0.000000
0.000000
0.000000
0.000000
0.000000
0.000000
0.000000
0.000000
0.000000
0.049180
0.049180
0.000000
0.000000
0.000000
0.000000
0.000000
0.061538
0.076923
0.088235
0.096774
0.132353
0.058824
0.058824
0.117647
0.058824
0.088235
0.088235
0.485294
0.073529
0.102941
0.073529
0.176471
0.044118
0.088235
0.132353
0.455882
0.191176
0.147059
0.058824
0.058824
0.044118
0.088235
0.058824
0.029412
0.014706
0.014706
0.000000
0.000000
0.000000
0.000000
0.000000
0.000000
0.000000
0.000000
0.000000
0.000000
0.000000
0.000000
0.000000
0.000000
0.000000
0.000000
0.000000
0.000000
0.000000
0.000000
0.000000
0.000000
0.000000
0.000000
0.000000
0.000000
0.000000
0.000000
0.000000
0.000000
0.000000
0.000000
0.000000
0.000000
0.000000
0.000000
0.000000
0.000000
0.000000
0.000000
0.000000
0.000000
0.000000
0.000000
0.000000
0.000000
0.000000
0.000000
0.000000
0.000000
0.000000
0.000000
0.000000
0.000000
0.000000
0.000000
0.000000
0.000000
0.000000
0.000000
0.000000
0.000000
0.000000
0.000000
0.000000
0.000000
0.000000
0.000000
0.000000
0.044118
0.000000
0.102941
0.000000
0.044118
0.102941
0.102941
0.102941
0.176471
0.176471
0.000000
0.000000
0.044118
0.000000
0.102941
0.308824
0.308824
0.426471
0.323529
0.588235
0.000000
0.121951
0.068182
0.279070
0.132075
0.418605
0.340000
0.303571
0.214286
0.321429
0.442623
0.147541
0.232558
0.139535
0.220000
0.046512
0.196429
0.169231
0.276923
0.205882
0.353846
0.250000
0.000000
0.000000
0.017857
0.053571
0.000000
0.032787
0.147541
0.030769
0.076923
0.132353
0.107692
0.147059
0.176471
0.215385
0.000000
0.000000
0.014706
0.073529
0.044118
0.073529
0.132353
0.294118
0.294118
0.294118
0.338235
0.441176
0.000000
0.000000
0.000000
0.000000
0.000000
0.000000
0.000000
0.000000
0.000000
0.000000
0.000000
0.000000
0.000000
0.000000
0.000000
0.000000
0.000000
0.000000
0.000000
0.000000
0.000000
0.014706
0.220588
0.279412
0.397059
0.264706
0.235294
0.235294
0.294118
0.220588
0.205882
0.250000
0.176471
0.117647
0.191176
0.117647
0.294118
0.117647
0.338235
0.102941
0.117647
0.088235
0.117647
0.029412
0.000000
0.000000
0.000000
0.000000
0.000000
0.000000
0.000000
0.000000
0.000000
0.000000
0.015385
0.000000
0.014706
0.015385
0.000000
0.014706
0.014706
0.014706
0.000000
0.000000
0.014706
0.000000
0.014706
0.014706
0.014706
0.000000
0.014706
0.014706
0.014706
0.014706
0.029412
0.044118
0.029412
0.014706
0.029412
0.058824
0.044118
0.161765
0.132353
0.029412
0.029412
0.044118
0.132353
0.147059
0.102941
0.205882
0.205882
0.014706
0.102941
0.073529
0.176471
0.088235
0.014706
0.014706
0.014706
0.014706
0.000000
0.044118
0.029412
0.014706
0.029412
0.029412
0.014706
0.014706
0.014706
0.044118
0.044118
0.014706
0.073529
0.014706
0.132353
0.058824
0.029412
0.029412
0.058824
0.029412
0.029412
0.088235
0.161765
0.205882
0.220588
0.294118
0.367647
0.338235
0.441176
0.323529
0.294118
0.323529
0.250000
0.205882
0.323529
0.294118
0.426471
0.250000
0.338235
0.117647
0.117647
0.029412
0.147059
0.000000
0.000000
0.000000
0.000000
0.000000
0.000000
0.000000
0.000000
0.000000
0.000000
0.000000
0.000000
0.000000
0.000000
0.000000
0.000000
0.000000
0.000000
0.000000
0.000000
0.000000
0.000000
0.014706
0.046512
0.000000
0.053571
0.000000
0.178571
0.114754
0.000000
0.184615
0.061538
0.073529
0.015385
0.117647
0.073529
0.000000
0.353846
0.382353
0.367647
0.250000
0.294118
0.441176
0.205882
0.014706
0.014706
0.014706
0.044118
0.014706
0.139535
0.209302
0.200000
0.465116
0.285714
0.279070
0.360000
0.267857
0.357143
0.132075
0.180328
0.442623
0.121951
0.000000
0.068182
0.307692
0.200000
0.235294
0.014706
0.000000
0.014706
0.102941
0.029412
0.147059
0.117647
0.176471
0.132353
0.235294
0.250000
0.073529
0.235294
0.294118
0.367647
0.161765
0.250000
0.176471
0.000000
0.044118
0.000000
0.161765
0.014706
0.250000
0.161765
0.176471
0.088235
0.264706
0.191176
0.014706
0.441176
0.323529
0.588235
0.235294
0.632353
0.029412
0.102941
0.029412
0.205882
0.044118
0.191176
0.250000
0.205882
0.323529
0.132353
0.220588
0.661765
0.161765
0.294118
0.485294
0.588235
0.352941
0.500000
0.352941
0.044118
0.102941
0.029412
0.161765
0.000000
0.000000
0.294118
0.250000
0.352941
0.161765
0.426471
0.073529
0.058824
0.058824
0.044118
0.014706
0.029412
0.014706
0.000000
0.014706
0.014706
0.014706
0.000000
0.044118
0.014706
0.014706
0.000000
0.000000
0.000000
0.000000
0.132353
0.338235
0.191176
0.514706
0.323529
0.411765
0.544118
0.411765
0.558824
0.176471
0.308824
0.441176
0.161765
0.044118
0.102941
0.588235
0.426471
0.544118
VECTORS displacements double 
-0.002495 0.000000 0.000000 
0.002495 0.000000 0.000000 
0.002495 0.000000 0.000000 
-0.002495 0.000000 0.000000 
-0.002495 0.000000 0.000000 
-0.002495 0.000000 0.000000 
-0.002495 0.000000 0.000000 
-0.002495 0.000000 0.000000 
0.002358 0.005201 0.000263 
0.000063 0.004411 0.000051 
0.000140 0.003991 0.000104 
0.000176 0.003766 0.000218 
0.000191 0.003621 0.000286 
0.000204 0.003446 0.000207 
0.000199 0.003301 0.000305 
0.000226 0.003176 0.000132 
0.000256 0.003040 -0.000132 
0.000250 0.002907 -0.000033 
0.000278 0.002800 -0.000138 
0.000301 0.002673 -0.000131 
0.000340 0.002619 -0.000228 
0.000386 0.002534 -0.000382 
0.000373 0.002477 -0.000250 
0.000392 0.002497 -0.000156 
0.000441 0.002515 -0.000207 
0.000467 0.002566 -0.000277 
0.000513 0.002607 -0.000390 
0.000514 0.002777 -0.000447 
0.000562 0.002910 0.000261 
0.000653 0.003376 0.000088 
-0.001775 0.004433 -0.000139 