# vtk DataFile Version 2.0
Solution time step = 399 
ASCII

DATASET UNSTRUCTURED_GRID
POINTS 2113 double
0.000000 0.000000 0.000000 
1.000000 0.000000 0.000000 
1.000000 1.000000 0.000000 
0.000000 1.000000 0.000000 
0.031250 0.000000 0.000000 
0.062500 0.000000 0.000000 
0.093750 0.000000 0.000000 
0.125000 0.000000 0.000000 
0.156250 0.000000 0.000000 
0.187500 0.000000 0.000000 
0.218750 0.000000 0.000000 
0.250000 0.000000 0.000000 
0.281250 0.000000 0.000000 
0.312500 0.000000 0.000000 
0.343750 0.000000 0.000000 
0.375000 0.000000 0.000000 
0.406250 0.000000 0.000000 
0.437500 0.000000 0.000000 
0.468750 0.000000 0.000000 
0.500000 0.000000 0.000000 
0.531250 0.000000 0.000000 
0.562500 0.000000 0.000000 
0.593750 0.000000 0.000000 
0.625000 0.000000 0.000000 
0.656250 0.000000 0.000000 
0.687500 0.000000 0.000000 
0.718750 0.000000 0.000000 
0.750000 0.000000 0.000000 
0.781250 0.000000 0.000000 
0.812500 0.000000 0.000000 
0.843750 0.000000 0.000000 
0.875000 0.000000 0.000000 
0.906250 0.000000 0.000000 
0.937500 0.000000 0.000000 
0.968750 0.000000 0.000000 
1.000000 0.031250 0.000000 
1.000000 0.062500 0.000000 
1.000000 0.093750 0.000000 
1.000000 0.125000 0.000000 
1.000000 0.156250 0.000000 
1.000000 0.187500 0.000000 
1.000000 0.218750 0.000000 
1.000000 0.250000 0.000000 
1.000000 0.281250 0.000000 
1.000000 0.312500 0.000000 
1.000000 0.343750 0.000000 
1.000000 0.375000 0.000000 
1.000000 0.406250 0.000000 
1.000000 0.437500 0.000000 
1.000000 0.468750 0.000000 
1.000000 0.500000 0.000000 
1.000000 0.531250 0.000000 
1.000000 0.562500 0.000000 
1.000000 0.593750 0.000000 
1.000000 0.625000 0.000000 
1.000000 0.656250 0.000000 
1.000000 0.687500 0.000000 
1.000000 0.718750 0.000000 
1.000000 0.750000 0.000000 
1.000000 0.781250 0.000000 
1.000000 0.812500 0.000000 
1.000000 0.843750 0.000000 
1.000000 0.875000 0.000000 
1.000000 0.906250 0.000000 
1.000000 0.937500 0.000000 
1.000000 0.968750 0.000000 
0.968750 1.000000 0.000000 
0.937500 1.000000 0.000000 
0.906250 1.000000 0.000000 
0.875000 1.000000 0.000000 
0.843750 1.000000 0.000000 
0.812500 1.000000 0.000000 
0.781250 1.000000 0.000000 
0.750000 1.000000 0.000000 
0.718750 1.000000 0.000000 
0.687500 1.000000 0.000000 
0.656250 1.000000 0.000000 
0.625000 1.000000 0.000000 
0.593750 1.000000 0.000000 
0.562500 1.000000 0.000000 
0.531250 1.000000 0.000000 
0.500000 1.000000 0.000000 
0.468750 1.000000 0.000000 
0.437500 1.000000 0.000000 
0.406250 1.000000 0.000000 
0.375000 1.000000 0.000000 
0.343750 1.000000 0.000000 
0.312500 1.000000 0.000000 
0.281250 1.000000 0.000000 
0.250000 1.000000 0.000000 
0.218750 1.000000 0.000000 
0.187500 1.000000 0.000000 
0.156250 1.000000 0.000000 
0.125000 1.000000 0.000000 
0.093750 1.000000 0.000000 
0.062500 1.000000 0.000000 
0.031250 1.000000 0.000000 
0.000000 0.968750 0.000000 
0.000000 0.937500 0.000000 
0.000000 0.906250 0.000000 
0.000000 0.875000 0.000000 
0.000000 0.843750 0.000000 
0.000000 0.812500 0.000000 
0.000000 0.781250 0.000000 
0.000000 0.750000 0.000000 
0.000000 0.718750 0.000000 
0.000000 0.687500 0.000000 
0.000000 0.656250 0.000000 
0.000000 0.625000 0.000000 
0.000000 0.593750 0.000000 
0.000000 0.562500 0.000000 
0.000000 0.531250 0.000000 
0.000000 0.500000 0.000000 
0.000000 0.468750 0.000000 
0.000000 0.437500 0.000000 
0.000000 0.406250 0.000000 
0.000000 0.375000 0.000000 
0.000000 0.343750 0.000000 
0.000000 0.312500 0.000000 
0.000000 0.281250 0.000000 
0.000000 0.250000 0.000000 
0.000000 0.218750 0.000000 
0.000000 0.187500 0.000000 
0.000000 0.156250 0.000000 
0.000000 0.125000 0.000000 
0.000000 0.093750 0.000000 
0.000000 0.062500 0.000000 
0.000000 0.031250 0.000000 
0.500000 0.500000 0.000000 
0.750000 0.250000 0.000000 
0.250000 0.250000 0.000000 
0.250000 0.750000 0.000000 
0.750000 0.750000 0.000000 
0.375000 0.125000 0.000000 
0.125000 0.125000 0.000000 
0.625000 0.125000 0.000000 
0.500000 0.250000 0.000000 
0.875000 0.125000 0.000000 
0.625000 0.375000 0.000000 
0.375000 0.375000 0.000000 
0.125000 0.375000 0.000000 
0.250000 0.500000 0.000000 
0.125000 0.625000 0.000000 
0.375000 0.625000 0.000000 
0.125000 0.875000 0.000000 
0.875000 0.375000 0.000000 
0.875000 0.625000 0.000000 
0.750000 0.500000 0.000000 
0.875000 0.875000 0.000000 
0.625000 0.625000 0.000000 
0.625000 0.875000 0.000000 
0.375000 0.875000 0.000000 
0.500000 0.750000 0.000000 
0.187500 0.062500 0.000000 
0.062500 0.062500 0.000000 
0.312500 0.062500 0.000000 
0.250000 0.125000 0.000000 
0.437500 0.062500 0.000000 
0.312500 0.187500 0.000000 
0.187500 0.187500 0.000000 
0.562500 0.062500 0.000000 
0.500000 0.125000 0.000000 
0.562500 0.187500 0.000000 
0.437500 0.187500 0.000000 
0.687500 0.187500 0.000000 
0.625000 0.250000 0.000000 
0.375000 0.250000 0.000000 
0.687500 0.062500 0.000000 
0.812500 0.062500 0.000000 
0.750000 0.125000 0.000000 
0.937500 0.062500 0.000000 
0.812500 0.187500 0.000000 
0.437500 0.312500 0.000000 
0.312500 0.312500 0.000000 
0.562500 0.312500 0.000000 
0.500000 0.375000 0.000000 
0.687500 0.312500 0.000000 
0.562500 0.437500 0.000000 
0.437500 0.437500 0.000000 
0.062500 0.187500 0.000000 
0.125000 0.250000 0.000000 
0.062500 0.312500 0.000000 
0.187500 0.312500 0.000000 
0.062500 0.437500 0.000000 
0.250000 0.375000 0.000000 
0.187500 0.437500 0.000000 
0.187500 0.562500 0.000000 
0.125000 0.500000 0.000000 
0.250000 0.625000 0.000000 
0.187500 0.687500 0.000000 
0.062500 0.562500 0.000000 
0.312500 0.437500 0.000000 
0.375000 0.500000 0.000000 
0.312500 0.562500 0.000000 
0.437500 0.562500 0.000000 
0.312500 0.687500 0.000000 
0.062500 0.687500 0.000000 
0.125000 0.750000 0.000000 
0.062500 0.812500 0.000000 
0.187500 0.812500 0.000000 
0.062500 0.937500 0.000000 
0.937500 0.187500 0.000000 
0.937500 0.312500 0.000000 
0.875000 0.250000 0.000000 
0.937500 0.437500 0.000000 
0.812500 0.312500 0.000000 
0.937500 0.562500 0.000000 
0.875000 0.500000 0.000000 
0.812500 0.562500 0.000000 
0.812500 0.437500 0.000000 
0.812500 0.687500 0.000000 
0.750000 0.625000 0.000000 
0.750000 0.375000 0.000000 
0.937500 0.687500 0.000000 
0.937500 0.812500 0.000000 
0.875000 0.750000 0.000000 
0.937500 0.937500 0.000000 
0.812500 0.812500 0.000000 
0.687500 0.437500 0.000000 
0.687500 0.562500 0.000000 
0.625000 0.500000 0.000000 
0.687500 0.687500 0.000000 
0.562500 0.562500 0.000000 
0.812500 0.937500 0.000000 
0.687500 0.937500 0.000000 
0.750000 0.875000 0.000000 
0.562500 0.937500 0.000000 
0.687500 0.812500 0.000000 
0.437500 0.937500 0.000000 
0.500000 0.875000 0.000000 
0.437500 0.812500 0.000000 
0.562500 0.812500 0.000000 
0.312500 0.812500 0.000000 
0.375000 0.750000 0.000000 
0.625000 0.750000 0.000000 
0.312500 0.937500 0.000000 
0.187500 0.937500 0.000000 
0.250000 0.875000 0.000000 
0.562500 0.687500 0.000000 
0.437500 0.687500 0.000000 
0.500000 0.625000 0.000000 
0.093750 0.031250 0.000000 
0.031250 0.031250 0.000000 
0.156250 0.031250 0.000000 
0.125000 0.062500 0.000000 
0.218750 0.031250 0.000000 
0.156250 0.093750 0.000000 
0.093750 0.093750 0.000000 
0.281250 0.031250 0.000000 
0.250000 0.062500 0.000000 
0.281250 0.093750 0.000000 
0.218750 0.093750 0.000000 
0.343750 0.093750 0.000000 
0.312500 0.125000 0.000000 
0.187500 0.125000 0.000000 
0.343750 0.031250 0.000000 
0.406250 0.031250 0.000000 
0.375000 0.062500 0.000000 
0.468750 0.031250 0.000000 
0.406250 0.093750 0.000000 
0.218750 0.156250 0.000000 
0.156250 0.156250 0.000000 
0.281250 0.156250 0.000000 
0.250000 0.187500 0.000000 
0.343750 0.156250 0.000000 
0.281250 0.218750 0.000000 
0.218750 0.218750 0.000000 
0.531250 0.031250 0.000000 
0.500000 0.062500 0.000000 
0.531250 0.093750 0.000000 
0.468750 0.093750 0.000000 
0.593750 0.093750 0.000000 
0.562500 0.125000 0.000000 
0.437500 0.125000 0.000000 
0.593750 0.156250 0.000000 
0.531250 0.156250 0.000000 
0.500000 0.187500 0.000000 
0.468750 0.156250 0.000000 
0.531250 0.218750 0.000000 
0.468750 0.218750 0.000000 
0.406250 0.156250 0.000000 
0.656250 0.156250 0.000000 
0.625000 0.187500 0.000000 
0.656250 0.218750 0.000000 
0.593750 0.218750 0.000000 
0.718750 0.218750 0.000000 
0.687500 0.250000 0.000000 
0.562500 0.250000 0.000000 
0.375000 0.187500 0.000000 
0.406250 0.218750 0.000000 
0.343750 0.218750 0.000000 
0.437500 0.250000 0.000000 
0.312500 0.250000 0.000000 
0.593750 0.031250 0.000000 
0.656250 0.031250 0.000000 
0.625000 0.062500 0.000000 
0.718750 0.031250 0.000000 
0.656250 0.093750 0.000000 
0.781250 0.031250 0.000000 
0.750000 0.062500 0.000000 
0.781250 0.093750 0.000000 
0.718750 0.093750 0.000000 
0.843750 0.093750 0.000000 
0.812500 0.125000 0.000000 
0.687500 0.125000 0.000000 
0.843750 0.031250 0.000000 
0.906250 0.031250 0.000000 
0.875000 0.062500 0.000000 
0.968750 0.031250 0.000000 
0.906250 0.093750 0.000000 
0.718750 0.156250 0.000000 
0.781250 0.156250 0.000000 
0.750000 0.187500 0.000000 
0.843750 0.156250 0.000000 
0.781250 0.218750 0.000000 
0.343750 0.281250 0.000000 
0.281250 0.281250 0.000000 
0.406250 0.281250 0.000000 
0.375000 0.312500 0.000000 
0.468750 0.281250 0.000000 
0.406250 0.343750 0.000000 
0.343750 0.343750 0.000000 
0.531250 0.281250 0.000000 
0.500000 0.312500 0.000000 
0.531250 0.343750 0.000000 
0.468750 0.343750 0.000000 
0.593750 0.343750 0.000000 
0.562500 0.375000 0.000000 
0.437500 0.375000 0.000000 
0.593750 0.281250 0.000000 
0.656250 0.281250 0.000000 
0.625000 0.312500 0.000000 
0.718750 0.281250 0.000000 
0.656250 0.343750 0.000000 
0.468750 0.406250 0.000000 
0.406250 0.406250 0.000000 
0.531250 0.406250 0.000000 
0.500000 0.437500 0.000000 
0.593750 0.406250 0.000000 
0.531250 0.468750 0.000000 
0.468750 0.468750 0.000000 
0.031250 0.093750 0.000000 
0.062500 0.125000 0.000000 
0.031250 0.156250 0.000000 
0.093750 0.156250 0.000000 
0.031250 0.218750 0.000000 
0.125000 0.187500 0.000000 
0.093750 0.218750 0.000000 
0.093750 0.281250 0.000000 
0.062500 0.250000 0.000000 
0.125000 0.312500 0.000000 
0.093750 0.343750 0.000000 
0.031250 0.281250 0.000000 
[...]
POINT_DATA 2113
SCALARS damage double
LOOKUP_TABLE default
0.000000
0.000000
0.000000
0.000000
0.000000
0.060606
0.189189
0.378378
0.351351
0.162162
0.108108
0.000000
0.000000
0.000000
0.000000
0.000000
0.000000
0.000000
0.000000
0.000000
0.000000
0.000000
0.000000
0.000000
0.000000
0.000000
0.000000
0.027027
0.081081
0.216216
0.351351
0.378378
0.189189
0.060606
0.000000
0.000000
0.000000
0.000000
0.000000
0.000000
0.000000
0.000000
0.000000
0.000000
0.000000
0.000000
0.000000
0.000000
0.000000
0.000000
0.000000
0.000000
0.000000
0.000000
0.000000
0.000000
0.000000
0.000000
0.000000
0.000000
0.000000
0.000000
0.000000
0.000000
0.000000
0.000000
0.000000
0.060606
0.189189
0.378378
0.351351
0.189189
0.108108
0.000000
0.000000
0.000000
0.000000
0.000000
0.000000
0.000000
0.000000
0.000000
0.000000
0.000000
0.000000
0.000000
0.000000
0.000000
0.000000
0.000000
0.108108
0.135135
0.324324
0.378378
0.189189
0.060606
0.000000
0.000000
0.000000
0.000000
0.000000
0.000000
0.000000
0.000000
0.000000
0.000000
0.000000
0.000000
0.000000
0.000000
0.000000
0.000000
0.000000
0.000000
0.000000
0.000000
0.000000
0.000000
0.000000
0.000000
0.000000
0.000000
0.000000
0.000000
0.000000
0.000000
0.000000
0.000000
0.558824
0.044118
0.073529
0.044118
0.088235
0.000000
0.264706
0.073529
0.205882
0.191176
0.000000
0.000000
0.058824
0.000000
0.029412
0.000000
0.147059
0.029412
0.058824
0.000000
0.250000
0.000000
0.014706
0.014706
0.147059
0.213115
0.055556
0.000000
0.073529
0.000000
0.014706
0.411765
0.000000
0.000000
0.117647
0.029412
0.176471
0.235294
0.029412
0.000000
0.262295
0.117647
0.055556
0.382353
0.044118
0.000000
0.323529
0.529412
0.000000
0.176471
0.102941
0.049180
0.117647
0.049180
0.147059
0.000000
0.000000
0.044118
0.044118
0.014706
0.000000
0.029412
0.000000
0.000000
0.000000
0.000000
0.102941
0.000000
0.016393
0.073529
0.049180
0.323529
0.055556
0.049180
0.016393
0.073529
0.000000
0.029412
0.000000
0.014706
0.044118
0.029412
0.044118
0.014706
0.000000
0.032787
0.049180
0.102941
0.055556
0.426471
0.000000
0.000000
0.000000
0.000000
0.176471
0.229508
0.000000
0.102941
0.000000
0.029412
0.000000
0.000000
0.147059
0.058824
0.235294
0.264706
0.044118
0.000000
0.245902
0.147059
0.117647
0.264706
0.544118
0.180000
0.000000
0.380000
0.295082
0.100000
0.441176
0.176471
0.000000
0.000000
0.014706
0.102941
0.000000
0.014706
0.411765
0.000000
0.000000
0.000000
0.000000
0.000000
0.205882
0.441176
0.073529
0.132353
0.029412
0.073529
0.235294
0.000000
0.000000
0.000000
0.000000
0.000000
0.014706
0.000000
0.102941
0.014706
0.029412
0.014706
0.161765
0.058824
0.014706
0.176471
0.250000
0.176471
0.338235
0.058824
0.044118
0.323529
0.029412
0.014706
0.029412
0.058824
0.014706
0.000000
0.000000
0.000000
0.000000
0.000000
0.100000
0.032787
0.161765
0.044118
0.441176
0.264706
0.044118
0.380000
0.200000
0.295082
0.000000
0.161765
0.250000
0.220588
0.132353
0.455882
0.058824
0.014706
0.029412
0.029412
0.000000
0.073529
0.000000
0.000000
0.352941
0.279412
0.426471
0.205882
0.132353
0.220588
0.088235
0.279412
0.073529
0.088235
0.000000
0.000000
0.308824
0.000000
0.397059
0.558824
0.044118
0.411765
0.308824
0.000000
0.049180
0.000000
0.117647
0.000000
0.161765
0.073529
0.073529
0.049180
0.073529
0.044118
0.000000
0.455882
0.397059
0.470588
0.088235
0.500000
0.000000
0.016393
0.000000
0.014706
0.000000
0.044118
0.014706
0.014706
0.029412
0.000000
0.000000
0.073529
0.000000
0.044118
0.044118
0.044118
0.044118
0.014706
0.029412
0.000000
0.014706
0.029412
0.044118
0.014706
0.058824
0.058824
0.000000
0.000000
0.000000
0.000000
0.000000
0.000000
0.000000
0.000000
0.000000
0.000000
0.000000
0.000000
0.000000
0.000000
0.000000
0.000000
0.000000
0.000000
0.102941
0.000000
0.308824
0.000000
0.000000
0.000000
0.000000
0.000000
0.000000
0.000000
0.000000
0.000000
0.029412
0.000000
0.058824
0.044118
0.073529
0.049180
0.102941
0.073529
0.000000
0.470588
0.058824
0.455882
0.058824
0.455882
0.000000
0.049180
0.000000
0.117647
0.000000
0.000000
0.000000
0.049180
0.000000
0.102941
0.000000
0.049180
0.044118
0.073529
0.014706
0.058824
0.102941
0.000000
0.000000
0.000000
0.000000
0.000000
0.455882
0.485294
0.058824
0.058824
0.044118
0.000000
0.000000
0.000000
0.000000
0.000000
0.029412
0.014706
0.088235
0.044118
0.044118
0.044118
0.000000
0.000000
0.044118
0.176471
0.029412
0.044118
0.014706
0.102941
0.044118
0.000000
0.044118
0.000000
0.029412
0.000000
0.000000
0.000000
0.000000
0.000000
0.000000
0.044118
0.000000
0.049180
0.073529
0.058824
0.102941
0.161765
0.073529
0.000000
0.000000
0.049180
0.000000
0.176471
0.485294
0.455882
0.382353
0.441176
0.250000
0.000000
0.000000
0.000000
0.000000
0.000000
0.000000
0.000000
0.000000
0.000000
0.000000
0.000000
0.000000
0.000000
0.000000
0.000000
0.029412
0.000000
0.044118
0.044118
0.176471
0.044118
0.411765
0.200000
0.380000
0.311475
0.100000
0.441176
0.000000
0.032787
0.029412
0.147059
0.000000
0.000000
0.455882
0.000000
0.000000
0.000000
0.000000
0.000000
0.235294
0.132353
0.147059
0.014706
0.117647
0.000000
0.000000
0.000000
0.000000
0.014706
0.014706
0.000000
0.073529
0.029412
0.029412
0.014706
0.176471
0.029412
0.029412
0.147059
0.191176
0.220588
0.338235
0.102941
0.058824
0.352941
0.058824
0.073529
0.073529
0.088235
0.014706
0.000000
0.000000
0.000000
0.000000
0.000000
0.100000
0.032787
0.161765
0.058824
0.426471
0.382353
0.044118
0.380000
0.200000
0.262295
0.191176
0.279412
0.205882
0.000000
0.117647
0.014706
0.235294
0.014706
0.250000
0.338235
0.323529
0.264706
0.102941
0.176471
0.132353
0.323529
0.117647
0.132353
0.397059
0.338235
0.558824
0.000000
0.000000
0.121951
0.068182
0.279070
0.132075
0.000000
0.465116
0.360000
0.392857
0.232143
0.267857
0.426230
0.163934
0.209302
0.139535
0.180000
0.046512
0.160714
0.230769
0.112903
0.307692
0.250000
0.323077
0.279412
0.191176
0.000000
0.000000
0.000000
0.053571
0.000000
0.000000
0.098361
0.000000
0.000000
0.044118
0.046154
0.029412
0.088235
0.153846
0.000000
0.000000
0.000000
0.000000
0.000000
0.014706
0.058824
0.235294
0.191176
0.352941
0.147059
0.441176
0.000000
0.000000
0.000000
0.000000
0.000000
0.000000
0.000000
0.000000
0.000000
0.000000
0.000000
0.000000
0.000000
0.000000
0.000000
0.000000
0.000000
0.000000
0.000000
0.000000
0.000000
0.000000
0.338235
0.279412
0.205882
0.338235
0.117647
0.308824
0.308824
0.088235
0.117647
0.147059
0.147059
0.029412
0.073529
0.205882
0.014706
0.014706
0.029412
0.029412
0.014706
0.161765
0.235294
0.117647
0.147059
0.044118
0.073529
0.088235
0.000000
0.000000
0.000000
0.000000
0.000000
0.000000
0.000000
0.000000
0.000000
0.000000
0.000000
0.014706
0.000000
0.000000
0.000000
0.000000
0.000000
0.014706
0.000000
0.044118
0.014706
0.000000
0.014706
0.014706
0.000000
0.000000
0.102941
0.073529
0.044118
0.000000
0.117647
0.088235
0.000000
0.117647
0.029412
0.044118
0.014706
0.044118
0.014706
0.000000
0.117647
0.117647
0.088235
0.073529
0.161765
0.102941
0.058824
0.014706
0.029412
0.014706
0.029412
0.014706
0.102941
0.161765
0.205882
0.191176
0.308824
0.279412
0.220588
0.161765
0.294118
0.264706
0.279412
0.250000
0.294118
0.191176
0.102941
0.102941
0.044118
0.117647
0.014706
0.000000
0.161765
0.235294
0.323529
0.220588
0.352941
0.235294
0.014706
0.014706
0.029412
0.029412
0.014706
0.029412
0.000000
0.029412
0.029412
0.014706
0.029412
0.029412
0.058824
0.088235
0.058824
0.044118
0.073529
0.014706
0.014706
0.029412
0.014706
0.058824
0.000000
0.000000
0.000000
0.000000
0.000000
0.000000
0.000000
0.000000
0.000000
0.000000
0.000000
0.000000
0.000000
0.000000
0.000000
0.000000
0.000000
0.000000
0.000000
0.000000
0.000000
0.000000
0.069767
0.000000
0.053571
0.000000
0.160714
0.131148
0.000000
0.230769
0.092308
0.073529
0.030769
0.117647
0.117647
0.000000
0.353846
0.411765
0.352941
0.279412
0.235294
0.441176
0.191176
0.000000
0.044118
0.014706
0.147059
0.058824
0.162791
0.232558
0.200000
0.465116
0.285714
0.279070
0.380000
0.250000
0.375000
0.132075
0.163934
0.426230
0.121951
0.000000
0.068182
0.000000
0.000000
0.292308
0.215385
0.220588
0.112903
0.161765
0.117647
0.205882
0.264706
0.161765
0.161765
0.176471
0.176471
0.191176
0.205882
0.176471
0.117647
0.147059
0.235294
0.367647
0.382353
0.205882
0.161765
0.088235
0.088235
0.073529
0.058824
0.044118
0.014706
0.058824
0.014706
0.014706
0.058824
0.014706
0.000000
0.029412
0.044118
0.044118
0.014706
0.044118
0.000000
0.000000
0.029412
0.073529
0.058824
0.102941
0.073529
0.000000
0.000000
0.000000
0.000000
0.029412
0.000000
0.000000
0.205882
0.220588
0.279412
0.191176
0.485294
0.397059
0.161765
0.352941
0.441176
0.397059
0.294118
0.500000
0.338235
0.147059
0.235294
0.323529
0.205882
0.352941
0.044118
0.088235
0.411765
0.088235
0.132353
0.029412
0.250000
0.000000
0.294118
0.426471
0.588235
0.235294
0.264706
0.147059
0.176471
0.088235
0.176471
0.000000
0.014706
0.191176
0.044118
0.000000
0.000000
0.000000
0.000000
0.132353
0.029412
0.044118
0.000000
0.000000
0.044118
0.000000
0.161765
0.102941
0.411765
0.176471
0.044118
0.500000
0.544118
0.544118
0.411765
0.294118
0.397059
0.308824
0.308824
0.132353
0.191176
0.000000
0.102941
0.426471
0.176471
0.558824
0.544118
0.308824
0.544118
0.411765
0.000000
0.000000
0.000000
0.000000
0.000000
0.049180
0.000000
0.000000
0.000000
0.049180
0.000000
0.000000
0.107692
0.147059
0.092308
0.205882
0.076923
0.000000
0.000000
0.000000
0.000000
0.000000
0.205882
0.147059
0.088235
0.088235
0.147059
0.088235
0.061538
0.088235
0.073529
0.061538
0.061538
0.061538
0.049180
0.049180
0.088235
0.073529
0.058824
0.058824
0.058824
0.058824
0.046154
0.000000
0.000000
0.000000
0.000000
0.000000
0.264706
0.455882
0.176471
0.176471
0.132353
0.397059
0.102941
0.058824
0.455882
0.352941
0.058824
0.102941
0.102941
0.088235
0.088235
0.058824
0.088235
0.088235
0.485294
0.058824
0.073529
0.058824
0.000000
0.000000
0.000000
0.000000
0.000000
0.032787
0.000000
0.000000
0.000000
0.000000
0.000000
0.000000
0.030769
0.029412
0.015385
0.044118
0.000000
0.000000
0.000000
0.000000
0.000000
0.000000
0.073529
0.058824
0.044118
0.073529
0.014706
0.014706
0.058824
0.014706
0.029412
0.014706
0.029412
0.014706
0.029412
0.044118
0.000000
0.000000
0.000000
0.000000
0.000000
0.000000
0.014706
0.088235
0.132353
0.132353
0.058824
0.058824
0.000000
0.000000
0.014706
0.014706
0.014706
0.044118
0.044118
0.058824
0.058824
0.044118
0.058824
0.029412
0.029412
0.058824
0.088235
0.044118
0.029412
0.029412
0.029412
0.029412
0.014706
0.058824
0.029412
0.044118
0.014706
0.058824
0.000000
0.000000
0.000000
0.000000
0.000000
0.014706
0.014706
0.014706
0.014706
0.029412
0.029412
0.029412
0.044118
0.044118
0.000000
0.014706
0.044118
0.029412
0.014706
0.044118
0.044118
0.117647
0.073529
0.058824
0.147059
0.044118
0.014706
0.000000
0.000000
0.000000
0.000000
0.000000
0.000000
0.000000
0.000000
0.000000
0.000000
0.000000
0.000000
0.000000
0.000000
0.000000
0.000000
0.000000
0.000000
0.000000
0.000000
0.000000
0.029412
0.014706
0.014706
0.000000
0.000000
0.000000
0.000000
0.000000
0.000000
0.000000
0.000000
0.000000
0.000000
0.000000
0.000000
0.000000
0.000000
0.000000
0.000000
0.000000
0.000000
0.000000
0.000000
0.000000
0.000000
0.000000
0.000000
0.000000
0.000000
0.000000
0.000000
0.000000
0.000000
0.000000
0.000000
0.000000
0.000000
0.000000
0.000000
0.000000
0.000000
0.000000
0.000000
0.000000
0.000000
0.000000
0.000000
0.000000
0.000000
0.000000
0.000000
0.044118
0.000000
0.102941
0.044118
0.044118
0.000000
0.102941
0.044118
0.000000
0.176471
0.308824
0.176471
0.411765
0.176471
0.000000
0.000000
0.000000
0.044118
0.000000
0.000000
0.000000
0.000000
0.000000
0.000000
0.000000
0.000000
0.000000
0.000000
0.000000
0.000000
0.000000
0.000000
0.000000
0.000000
0.000000
0.000000
0.000000
0.000000
0.000000
0.000000
0.014706
0.000000
0.000000
0.000000
0.000000
0.000000
0.000000
0.000000
0.000000
0.000000
0.000000
0.000000
0.000000
0.000000
0.000000
0.000000
0.029412
0.015385
0.000000
0.000000
0.000000
0.000000
0.000000
0.058824
0.044118
0.058824
0.044118
0.058824
0.058824
0.030769
0.073529
0.058824
0.061538
0.046154
0.061538
0.049180
0.032787
0.088235
0.088235
0.088235
0.073529
0.132353
0.102941
0.061538
0.000000
0.000000
0.000000
0.000000
0.000000
0.058824
0.147059
0.058824
0.117647
0.073529
0.044118
0.132353
0.073529
0.470588
0.382353
0.132353
0.088235
0.073529
0.058824
0.058824
0.058824
0.117647
0.102941
0.455882
0.132353
0.205882
0.205882
0.000000
0.000000
0.000000
0.000000
0.000000
0.049180
0.000000
0.000000
0.000000
0.049180
0.000000
0.000000
0.061538
0.088235
0.076923
0.117647
0.096774
0.000000
0.000000
0.000000
0.000000
0.000000
0.000000
0.000000
0.000000
0.000000
0.000000
0.000000
0.000000
0.000000
0.000000
0.000000
0.049180
0.049180
0.000000
0.000000
0.000000
0.000000
0.000000
0.107692
0.092308
0.132353
0.076923
0.161765
0.000000
0.000000
0.000000
0.000000
0.000000
0.032787
0.049180
0.030769
0.046154
0.058824
0.061538
0.058824
0.073529
0.061538
0.015385
0.029412
0.044118
0.058824
0.014706
0.058824
0.058824
0.088235
0.102941
0.117647
0.088235
0.161765
0.000000
0.000000
0.000000
0.000000
0.000000
0.000000
0.000000
0.000000
0.000000
0.000000
0.000000
0.000000
0.000000
0.000000
0.000000
0.000000
0.000000
0.000000
0.000000
0.000000
0.000000
0.014706
0.132353
0.088235
0.455882
0.088235
0.102941
0.073529
0.470588
0.088235
0.088235
0.102941
0.044118
0.102941
0.058824
0.058824
0.117647
0.044118
0.132353
0.058824
0.058824
0.058824
0.029412
0.029412
0.000000
0.000000
0.000000
0.000000
0.000000
0.000000
0.000000
0.000000
0.000000
0.000000
0.000000
0.000000
0.000000
0.000000
0.000000
0.000000
0.014706
0.014706
0.014706
0.029412
0.029412
0.000000
0.000000
0.000000
0.014706
0.029412
0.044118
0.029412
0.073529
0.029412
0.044118
0.044118
0.029412
0.044118
0.058824
0.058824
0.044118
0.044118
0.073529
0.029412
0.014706
0.014706
0.000000
0.014706
0.000000
0.000000
0.014706
0.029412
0.044118
0.029412
0.073529
0.029412
0.058824
0.073529
0.426471
0.073529
0.132353
0.044118
0.044118
0.058824
0.029412
0.029412
0.029412
0.014706
0.014706
0.029412
0.088235
0.088235
0.102941
0.058824
0.088235
0.073529
0.044118
0.014706
0.014706
0.000000
0.014706
0.000000
0.073529
0.058824
0.073529
0.044118
0.044118
0.014706
0.014706
0.000000
0.014706
0.000000
0.000000
0.029412
0.000000
0.000000
0.000000
0.000000
0.000000
0.029412
0.014706
0.029412
0.000000
0.014706
0.000000
0.000000
0.000000
0.000000
0.000000
0.000000
0.000000
0.000000
0.000000
0.000000
0.016393
0.000000
0.000000
0.000000
0.000000
0.000000
0.000000
0.000000
0.015385
0.029412
0.030769
0.044118
0.000000
0.000000
0.000000
0.000000
0.000000
0.049180
0.049180
0.061538
0.061538
0.073529
0.061538
0.088235
0.073529
0.046154
0.076923
0.088235
0.132353
0.088235
0.176471
0.191176
0.117647
0.044118
0.058824
0.058824
0.073529
0.058824
0.000000
0.000000
0.000000
0.000000
0.000000
0.000000
0.000000
0.000000
0.000000
0.000000
0.049180
0.049180
0.000000
0.000000
0.000000
0.000000
0.000000
0.092308
0.107692
0.132353
0.112903
0.191176
0.058824
0.073529
0.500000
0.088235
0.147059
0.117647
0.470588
0.102941
0.073529
0.220588
0.411765
0.367647
0.161765
0.235294
0.455882
0.279412
0.264706
0.117647
0.220588
0.088235
0.264706
0.132353
0.000000
0.000000
0.000000
0.000000
0.000000
0.000000
0.000000
0.000000
0.000000
0.000000
0.000000
0.000000
0.000000
0.000000
0.000000
0.000000
0.000000
0.000000
0.000000
0.000000
0.000000
0.000000
0.000000
0.000000
0.000000
0.000000
0.000000
0.000000
0.000000
0.000000
0.000000
0.000000
0.000000
0.000000
0.000000
0.000000
0.000000
0.000000
0.000000
0.000000
0.000000
0.000000
0.000000
0.000000
0.000000
0.000000
0.000000
0.000000
0.000000
0.000000
0.000000
0.014706
0.000000
0.014706
0.000000
0.000000
0.000000
0.000000
0.000000
0.000000
0.029412
0.044118
0.014706
0.058824
0.000000
0.000000
0.000000
0.000000
0.000000
0.000000
0.000000
0.000000
0.044118
0.000000
0.102941
0.000000
0.044118
0.102941
0.102941
0.102941
0.176471
0.176471
0.000000
0.000000
0.044118
0.000000
0.102941
0.308824
0.308824
0.426471
0.308824
0.544118
0.000000
0.121951
0.068182
0.279070
0.132075
0.465116
0.360000
0.392857
0.250000
0.285714
0.442623
0.163934
0.232558
0.139535
0.200000
0.046512
0.160714
0.230769
0.323077
0.250000
0.338462
0.294118
0.000000
0.000000
0.000000
0.053571
0.000000
0.000000
0.114754
0.000000
0.030769
0.058824
0.107692
0.058824
0.088235
0.200000
0.000000
0.000000
0.000000
0.014706
0.000000
0.014706
0.058824
0.382353
0.191176
0.338235
0.161765
0.426471
0.000000
0.000000
0.000000
0.000000
0.000000
0.000000
0.000000
0.000000
0.000000
0.000000
0.000000
0.000000
0.000000
0.000000
0.000000
0.000000
0.000000
0.000000
0.000000
0.000000
0.000000
0.000000
0.338235
0.250000
0.367647
0.147059
0.279412
0.102941
0.147059
0.161765
0.161765
0.044118
0.073529
0.205882
0.000000
0.000000
0.014706
0.000000
0.029412
0.161765
0.132353
0.176471
0.044118
0.117647
0.000000
0.000000
0.000000
0.000000
0.000000
0.000000
0.000000
0.000000
0.000000
0.000000
0.000000
0.000000
0.000000
0.000000
0.000000
0.000000
0.014706
0.014706
0.000000
0.014706
0.014706
0.000000
0.000000
0.000000
0.000000
0.000000
0.044118
0.014706
0.044118
0.014706
0.117647
0.073529
0.000000
0.088235
0.029412
0.029412
0.029412
0.029412
0.029412
0.014706
0.176471
0.058824
0.073529
0.044118
0.147059
0.029412
0.044118
0.014706
0.014706
0.014706
0.044118
0.014706
0.073529
0.117647
0.235294
0.132353
0.191176
0.279412
0.205882
0.250000
0.367647
0.338235
0.308824
0.264706
0.382353
0.250000
0.191176
0.176471
0.058824
0.147059
0.073529
0.029412
0.147059
0.250000
0.352941
0.220588
0.544118
0.191176
0.029412
0.044118
0.014706
0.058824
0.029412
0.073529
0.029412
0.058824
0.088235
0.058824
0.073529
0.014706
0.044118
0.058824
0.088235
0.088235
0.058824
0.014706
0.029412
0.044118
0.029412
0.058824
0.000000
0.000000
0.000000
0.000000
0.000000
0.000000
0.000000
0.000000
0.000000
0.000000
0.000000
0.000000
0.000000
0.000000
0.000000
0.000000
0.000000
0.000000
0.000000
0.014706
0.000000
0.000000
0.046512
0.000000
0.053571
0.017857
0.160714
0.114754
0.016393
0.261538
0.123077
0.088235
0.046154
0.176471
0.117647
0.000000
0.292308
0.323529
0.279412
0.352941
0.220588
0.455882
0.235294
0.014706
0.044118
0.000000
0.132353
0.000000
0.162791
0.209302
0.200000
0.441860
0.285714
0.279070
0.340000
0.214286
0.339286
0.132075
0.131148
0.409836
0.121951
0.000000
0.068182
0.292308
0.169231
0.191176
0.044118
0.102941
0.147059
0.205882
0.279412
0.220588
0.205882
0.235294
0.308824
0.250000
0.176471
0.205882
0.279412
0.250000
0.397059
0.161765
0.117647
0.102941
0.014706
0.014706
0.000000
0.014706
0.000000
0.088235
0.014706
0.058824
0.000000
0.132353
0.073529
0.000000
0.117647
0.117647
0.088235
0.205882
0.161765
0.000000
0.014706
0.000000
0.088235
0.000000
0.294118
0.264706
0.264706
0.308824
0.338235
0.338235
0.279412
0.279412
0.367647
0.323529
0.338235
0.411765
0.367647
0.147059
0.205882
0.220588
0.117647
0.235294
0.044118
0.044118
0.352941
0.088235
0.176471
0.058824
0.308824
0.029412
0.279412
0.397059
0.382353
0.279412
0.279412
0.205882
0.205882
0.132353
0.205882
0.029412
0.044118
0.191176
0.073529
0.000000
0.014706
0.102941
0.044118
0.044118
0.088235
0.250000
0.161765
0.485294
0.294118
0.426471
0.529412
0.411765
0.529412
0.191176
0.308824
0.397059
0.220588
0.088235
0.132353
0.558824
0.411765
0.558824
VECTORS displacements double 
-0.001995 0.000000 0.000000 
0.001995 0.000000 0.000000 
0.001995 0.000000 0.000000 
-0.001995 0.000000 0.000000 
-0.001995 0.000000 0.000000 
-0.001995 0.000000 0.000000 
-0.001995 0.000000 0.000000 
-0.001995 0.000000 0.000000 
0.001630 0.003929 0.000067 
-0.000598 0.003125 -0.000122 
-0.000389 0.002641 -0.000065 
-0.000415 0.002338 -0.000051 
-0.000362 0.002243 0.000214 
-0.000318 0.002123 -0.000042 
-0.000253 0.002137 -0.000064 
-0.000232 0.002178 -0.000096 
-0.000171 0.002109 -0.000071 
-0.000178 0.002217 0.000050 
-0.000158 0.002289 -0.000183 
-0.000108 0.002335 -0.000228 
-0.000137 0.002501 -0.000028 
-0.000131 0.002567 -0.000077 
-0.000099 0.002619 0.000178 
-0.000100 0.002764 0.000228 
-0.000108 0.002831 0.000255 
-0.000124 0.002902 -0.000125 
-0.000098 0.002999 0.000105 
-0.000083 0.003117 -0.000035 
-0.000060 0.003225 -0.000217 
-0.000008 0.003394 -0.000102 