# vtk DataFile Version 2.0
Solution time step = 399 
ASCII

DATASET UNSTRUCTURED_GRID
POINTS 2113 double
0.000000 0.000000 0.000000 
1.000000 0.000000 0.000000 
1.000000 1.000000 0.000000 
0.000000 1.000000 0.000000 
0.031250 0.000000 0.000000 
0.062500 0.000000 0.000000 
0.093750 0.000000 0.000000 
0.125000 0.000000 0.000000 
0.156250 0.000000 0.000000 
0.187500 0.000000 0.000000 
0.218750 0.000000 0.000000 
0.250000 0.000000 0.000000 
0.281250 0.000000 0.000000 
0.312500 0.000000 0.000000 
0.343750 0.000000 0.000000 
0.375000 0.000000 0.000000 
0.406250 0.000000 0.000000 
0.437500 0.000000 0.000000 
0.468750 0.000000 0.000000 
0.500000 0.000000 0.000000 
0.531250 0.000000 0.000000 
0.562500 0.000000 0.000000 
0.593750 0.000000 0.000000 
0.625000 0.000000 0.000000 
0.656250 0.000000 0.000000 
0.687500 0.000000 0.000000 
0.718750 0.000000 0.000000 
0.750000 0.000000 0.000000 
0.781250 0.000000 0.000000 
0.812500 0.000000 0.000000 
0.843750 0.000000 0.000000 
0.875000 0.000000 0.000000 
0.906250 0.000000 0.000000 
0.937500 0.000000 0.000000 
0.968750 0.000000 0.000000 
1.000000 0.031250 0.000000 
1.000000 0.062500 0.000000 
1.000000 0.093750 0.000000 
1.000000 0.125000 0.000000 
1.000000 0.156250 0.000000 
1.000000 0.187500 0.000000 
1.000000 0.218750 0.000000 
1.000000 0.250000 0.000000 
1.000000 0.281250 0.000000 
1.000000 0.312500 0.000000 
1.000000 0.343750 0.000000 
1.000000 0.375000 0.000000 
1.000000 0.406250 0.000000 
1.000000 0.437500 0.000000 
1.000000 0.468750 0.000000 
1.000000 0.500000 0.000000 
1.000000 0.531250 0.000000 
1.000000 0.562500 0.000000 
1.000000 0.593750 0.000000 
1.000000 0.625000 0.000000 
1.000000 0.656250 0.000000 
1.000000 0.687500 0.000000 
1.000000 0.718750 0.000000 
1.000000 0.750000 0.000000 
1.000000 0.781250 0.000000 
1.000000 0.812500 0.000000 
1.000000 0.843750 0.000000 
1.000000 0.875000 0.000000 
1.000000 0.906250 0.000000 
1.000000 0.937500 0.000000 
1.000000 0.968750 0.000000 
0.968750 1.000000 0.000000 
0.937500 1.000000 0.000000 
0.906250 1.000000 0.000000 
0.875000 1.000000 0.000000 
0.843750 1.000000 0.000000 
0.812500 1.000000 0.000000 
0.781250 1.000000 0.000000 
0.750000 1.000000 0.000000 
0.718750 1.000000 0.000000 
0.687500 1.000000 0.000000 
0.656250 1.000000 0.000000 
0.625000 1.000000 0.000000 
0.593750 1.000000 0.000000 
0.562500 1.000000 0.000000 
0.531250 1.000000 0.000000 
0.500000 1.000000 0.000000 
0.468750 1.000000 0.000000 
0.437500 1.000000 0.000000 
0.406250 1.000000 0.000000 
0.375000 1.000000 0.000000 
0.343750 1.000000 0.000000 
0.312500 1.000000 0.000000 
0.281250 1.000000 0.000000 
0.250000 1.000000 0.000000 
0.218750 1.000000 0.000000 
0.187500 1.000000 0.000000 
0.156250 1.000000 0.000000 
0.125000 1.000000 0.000000 
0.093750 1.000000 0.000000 
0.062500 1.000000 0.000000 
0.031250 1.000000 0.000000 
0.000000 0.968750 0.000000 
0.000000 0.937500 0.000000 
0.000000 0.906250 0.000000 
0.000000 0.875000 0.000000 
0.000000 0.843750 0.000000 
0.000000 0.812500 0.000000 
0.000000 0.781250 0.000000 
0.000000 0.750000 0.000000 
0.000000 0.718750 0.000000 
0.000000 0.687500 0.000000 
0.000000 0.656250 0.000000 
0.000000 0.625000 0.000000 
0.000000 0.593750 0.000000 
0.000000 0.562500 0.000000 
0.000000 0.531250 0.000000 
0.000000 0.500000 0.000000 
0.000000 0.468750 0.000000 
0.000000 0.437500 0.000000 
0.000000 0.406250 0.000000 
0.000000 0.375000 0.000000 
0.000000 0.343750 0.000000 
0.000000 0.312500 0.000000 
0.000000 0.281250 0.000000 
0.000000 0.250000 0.000000 
0.000000 0.218750 0.000000 
0.000000 0.187500 0.000000 
0.000000 0.156250 0.000000 
0.000000 0.125000 0.000000 
0.000000 0.093750 0.000000 
0.000000 0.062500 0.000000 
0.000000 0.031250 0.000000 
0.500000 0.500000 0.000000 
0.750000 0.250000 0.000000 
0.250000 0.250000 0.000000 
0.250000 0.750000 0.000000 
0.750000 0.750000 0.000000 
0.375000 0.125000 0.000000 
0.125000 0.125000 0.000000 
0.625000 0.125000 0.000000 
0.500000 0.250000 0.000000 
0.875000 0.125000 0.000000 
0.625000 0.375000 0.000000 
0.375000 0.375000 0.000000 
0.125000 0.375000 0.000000 
0.250000 0.500000 0.000000 
0.125000 0.625000 0.000000 
0.375000 0.625000 0.000000 
0.125000 0.875000 0.000000 
0.875000 0.375000 0.000000 
0.875000 0.625000 0.000000 
0.750000 0.500000 0.000000 
0.875000 0.875000 0.000000 
0.625000 0.625000 0.000000 
0.625000 0.875000 0.000000 
0.375000 0.875000 0.000000 
0.500000 0.750000 0.000000 
0.187500 0.062500 0.000000 
0.062500 0.062500 0.000000 
0.312500 0.062500 0.000000 
0.250000 0.125000 0.000000 
0.437500 0.062500 0.000000 
0.312500 0.187500 0.000000 
0.187500 0.187500 0.000000 
0.562500 0.062500 0.000000 
0.500000 0.125000 0.000000 
0.562500 0.187500 0.000000 
0.437500 0.187500 0.000000 
0.687500 0.187500 0.000000 
0.625000 0.250000 0.000000 
0.375000 0.250000 0.000000 
0.687500 0.062500 0.000000 
0.812500 0.062500 0.000000 
0.750000 0.125000 0.000000 
0.937500 0.062500 0.000000 
0.812500 0.187500 0.000000 
0.437500 0.312500 0.000000 
0.312500 0.312500 0.000000 
0.562500 0.312500 0.000000 
0.500000 0.375000 0.000000 
0.687500 0.312500 0.000000 
0.562500 0.437500 0.000000 
0.437500 0.437500 0.000000 
0.062500 0.187500 0.000000 
0.125000 0.250000 0.000000 
0.062500 0.312500 0.000000 
0.187500 0.312500 0.000000 
0.062500 0.437500 0.000000 
0.250000 0.375000 0.000000 
0.187500 0.437500 0.000000 
0.187500 0.562500 0.000000 
0.125000 0.500000 0.000000 
0.250000 0.625000 0.000000 
0.187500 0.687500 0.000000 
0.062500 0.562500 0.000000 
0.312500 0.437500 0.000000 
0.375000 0.500000 0.000000 
0.312500 0.562500 0.000000 
0.437500 0.562500 0.000000 
0.312500 0.687500 0.000000 
0.062500 0.687500 0.000000 
0.125000 0.750000 0.000000 
0.062500 0.812500 0.000000 
0.187500 0.812500 0.000000 
0.062500 0.937500 0.000000 
0.937500 0.187500 0.000000 
0.937500 0.312500 0.000000 
0.875000 0.250000 0.000000 
0.937500 0.437500 0.000000 
0.812500 0.312500 0.000000 
0.937500 0.562500 0.000000 
0.875000 0.500000 0.000000 
0.812500 0.562500 0.000000 
0.812500 0.437500 0.000000 
0.812500 0.687500 0.000000 
0.750000 0.625000 0.000000 
0.750000 0.375000 0.000000 
0.937500 0.687500 0.000000 
0.937500 0.812500 0.000000 
0.875000 0.750000 0.000000 
0.937500 0.937500 0.000000 
0.812500 0.812500 0.000000 
0.687500 0.437500 0.000000 
0.687500 0.562500 0.000000 
0.625000 0.500000 0.000000 
0.687500 0.687500 0.000000 
0.562500 0.562500 0.000000 
0.812500 0.937500 0.000000 
0.687500 0.937500 0.000000 
0.750000 0.875000 0.000000 
0.562500 0.937500 0.000000 
0.687500 0.812500 0.000000 
0.437500 0.937500 0.000000 
0.500000 0.875000 0.000000 
0.437500 0.812500 0.000000 
0.562500 0.812500 0.000000 
0.312500 0.812500 0.000000 
0.375000 0.750000 0.000000 
0.625000 0.750000 0.000000 
0.312500 0.937500 0.000000 
0.187500 0.937500 0.000000 
0.250000 0.875000 0.000000 
0.562500 0.687500 0.000000 
0.437500 0.687500 0.000000 
0.500000 0.625000 0.000000 
0.093750 0.031250 0.000000 
0.031250 0.031250 0.000000 
0.156250 0.031250 0.000000 
0.125000 0.062500 0.000000 
0.218750 0.031250 0.000000 
0.156250 0.093750 0.000000 
0.093750 0.093750 0.000000 
0.281250 0.031250 0.000000 
0.250000 0.062500 0.000000 
0.281250 0.093750 0.000000 
0.218750 0.093750 0.000000 
0.343750 0.093750 0.000000 
0.312500 0.125000 0.000000 
0.187500 0.125000 0.000000 
0.343750 0.031250 0.000000 
0.406250 0.031250 0.000000 
0.375000 0.062500 0.000000 
0.468750 0.031250 0.000000 
0.406250 0.093750 0.000000 
0.218750 0.156250 0.000000 
0.156250 0.156250 0.000000 
0.281250 0.156250 0.000000 
0.250000 0.187500 0.000000 
0.343750 0.156250 0.000000 
0.281250 0.218750 0.000000 
0.218750 0.218750 0.000000 
0.531250 0.031250 0.000000 
0.500000 0.062500 0.000000 
0.531250 0.093750 0.000000 
0.468750 0.093750 0.000000 
0.593750 0.093750 0.000000 
0.562500 0.125000 0.000000 
0.437500 0.125000 0.000000 
0.593750 0.156250 0.000000 
0.531250 0.156250 0.000000 
0.500000 0.187500 0.000000 
0.468750 0.156250 0.000000 
0.531250 0.218750 0.000000 
0.468750 0.218750 0.000000 
0.406250 0.156250 0.000000 
0.656250 0.156250 0.000000 
0.625000 0.187500 0.000000 
0.656250 0.218750 0.000000 
0.593750 0.218750 0.000000 
0.718750 0.218750 0.000000 
0.687500 0.250000 0.000000 
0.562500 0.250000 0.000000 
0.375000 0.187500 0.000000 
0.406250 0.218750 0.000000 
0.343750 0.218750 0.000000 
0.437500 0.250000 0.000000 
0.312500 0.250000 0.000000 
0.593750 0.031250 0.000000 
0.656250 0.031250 0.000000 
0.625000 0.062500 0.000000 
0.718750 0.031250 0.000000 
0.656250 0.093750 0.000000 
0.781250 0.031250 0.000000 
0.750000 0.062500 0.000000 
0.781250 0.093750 0.000000 
0.718750 0.093750 0.000000 
0.843750 0.093750 0.000000 
0.812500 0.125000 0.000000 
0.687500 0.125000 0.000000 
0.843750 0.031250 0.000000 
0.906250 0.031250 0.000000 
0.875000 0.062500 0.000000 
0.968750 0.031250 0.000000 
0.906250 0.093750 0.000000 
0.718750 0.156250 0.000000 
0.781250 0.156250 0.000000 
0.750000 0.187500 0.000000 
0.843750 0.156250 0.000000 
0.781250 0.218750 0.000000 
0.343750 0.281250 0.000000 
0.281250 0.281250 0.000000 
0.406250 0.281250 0.000000 
0.375000 0.312500 0.000000 
0.468750 0.281250 0.000000 
0.406250 0.343750 0.000000 
0.343750 0.343750 0.000000 
0.531250 0.281250 0.000000 
0.500000 0.312500 0.000000 
0.531250 0.343750 0.000000 
0.468750 0.343750 0.000000 
0.593750 0.343750 0.000000 
0.562500 0.375000 0.000000 
0.437500 0.375000 0.000000 
0.593750 0.281250 0.000000 
0.656250 0.281250 0.000000 
0.625000 0.312500 0.000000 
0.718750 0.281250 0.000000 
0.656250 0.343750 0.000000 
0.468750 0.406250 0.000000 
0.406250 0.406250 0.000000 
0.531250 0.406250 0.000000 
0.500000 0.437500 0.000000 
0.593750 0.406250 0.000000 
0.531250 0.468750 0.000000 
0.468750 0.468750 0.000000 
0.031250 0.093750 0.000000 
0.062500 0.125000 0.000000 
0.031250 0.156250 0.000000 
0.093750 0.156250 0.000000 
0.031250 0.218750 0.000000 
0.125000 0.187500 0.000000 
0.093750 0.218750 0.000000 
0.093750 0.281250 0.000000 
0.062500 0.250000 0.000000 
0.125000 0.312500 0.000000 
0.093750 0.343750 0.000000 
0.031250 0.281250 0.000000 
[...]
POINT_DATA 2113
SCALARS damage double
LOOKUP_TABLE default
0.000000
0.000000
0.000000
0.000000
0.000000
0.060606
0.189189
0.378378
0.324324
0.162162
0.135135
0.027027
0.000000
0.000000
0.000000
0.000000
0.000000
0.027027
0.027027
0.000000
0.000000
0.000000
0.000000
0.000000
0.000000
0.000000
0.000000
0.000000
0.081081
0.135135
0.405405
0.378378
0.189189
0.060606
0.000000
0.000000
0.000000
0.000000
0.000000
0.000000
0.000000
0.000000
0.000000
0.000000
0.000000
0.000000
0.000000
0.000000
0.000000
0.000000
0.000000
0.000000
0.000000
0.000000
0.000000
0.000000
0.000000
0.000000
0.000000
0.000000
0.000000
0.000000
0.000000
0.000000
0.000000
0.000000
0.000000
0.060606
0.189189
0.378378
0.405405
0.108108
0.081081
0.000000
0.000000
0.000000
0.000000
0.000000
0.000000
0.000000
0.000000
0.000000
0.000000
0.000000
0.000000
0.000000
0.000000
0.000000
0.000000
0.000000
0.081081
0.162162
0.405405
0.378378
0.189189
0.060606
0.000000
0.000000
0.000000
0.000000
0.000000
0.000000
0.000000
0.000000
0.000000
0.000000
0.000000
0.000000
0.000000
0.000000
0.000000
0.000000
0.000000
0.000000
0.000000
0.000000
0.000000
0.000000
0.000000
0.000000
0.000000
0.000000
0.000000
0.000000
0.000000
0.000000
0.000000
0.000000
0.558824
0.088235
0.058824
0.014706
0.058824
0.058824
0.176471
0.000000
0.117647
0.264706
0.000000
0.000000
0.058824
0.000000
0.029412
0.000000
0.176471
0.058824
0.058824
0.000000
0.220588
0.000000
0.000000
0.073529
0.191176
0.262295
0.055556
0.000000
0.117647
0.000000
0.176471
0.426471
0.000000
0.014706
0.058824
0.102941
0.014706
0.044118
0.264706
0.000000
0.229508
0.073529
0.055556
0.397059
0.279412
0.000000
0.102941
0.573529
0.000000
0.176471
0.102941
0.049180
0.088235
0.032787
0.029412
0.000000
0.000000
0.044118
0.044118
0.014706
0.000000
0.029412
0.000000
0.000000
0.000000
0.000000
0.102941
0.000000
0.016393
0.073529
0.049180
0.191176
0.055556
0.049180
0.049180
0.088235
0.000000
0.102941
0.000000
0.014706
0.044118
0.029412
0.058824
0.000000
0.000000
0.049180
0.049180
0.088235
0.055556
0.426471
0.000000
0.000000
0.000000
0.000000
0.176471
0.213115
0.000000
0.088235
0.000000
0.014706
0.000000
0.014706
0.132353
0.029412
0.161765
0.220588
0.029412
0.000000
0.295082
0.117647
0.088235
0.308824
0.573529
0.200000
0.000000
0.380000
0.262295
0.100000
0.455882
0.147059
0.000000
0.032787
0.073529
0.147059
0.000000
0.088235
0.279412
0.000000
0.000000
0.000000
0.000000
0.000000
0.205882
0.455882
0.264706
0.088235
0.176471
0.058824
0.044118
0.000000
0.000000
0.000000
0.000000
0.000000
0.029412
0.000000
0.014706
0.014706
0.058824
0.029412
0.058824
0.191176
0.088235
0.014706
0.014706
0.044118
0.014706
0.102941
0.014706
0.058824
0.250000
0.426471
0.205882
0.338235
0.029412
0.000000
0.000000
0.000000
0.000000
0.000000
0.100000
0.000000
0.117647
0.014706
0.441176
0.426471
0.014706
0.400000
0.200000
0.311475
0.000000
0.176471
0.088235
0.191176
0.117647
0.441176
0.176471
0.088235
0.000000
0.264706
0.102941
0.323529
0.132353
0.000000
0.117647
0.294118
0.279412
0.367647
0.014706
0.132353
0.176471
0.044118
0.029412
0.000000
0.029412
0.000000
0.323529
0.000000
0.382353
0.573529
0.044118
0.426471
0.308824
0.000000
0.049180
0.000000
0.102941
0.000000
0.147059
0.073529
0.058824
0.049180
0.058824
0.029412
0.000000
0.455882
0.073529
0.455882
0.014706
0.102941
0.000000
0.000000
0.000000
0.000000
0.000000
0.014706
0.029412
0.029412
0.044118
0.000000
0.000000
0.044118
0.000000
0.044118
0.044118
0.044118
0.044118
0.014706
0.014706
0.000000
0.014706
0.014706
0.044118
0.014706
0.044118
0.058824
0.000000
0.000000
0.000000
0.000000
0.000000
0.000000
0.000000
0.000000
0.000000
0.000000
0.000000
0.000000
0.000000
0.000000
0.000000
0.000000
0.000000
0.000000
0.102941
0.000000
0.308824
0.000000
0.000000
0.000000
0.000000
0.000000
0.000000
0.000000
0.000000
0.000000
0.014706
0.000000
0.058824
0.044118
0.073529
0.049180
0.102941
0.088235
0.000000
0.470588
0.058824
0.455882
0.044118
0.455882
0.000000
0.049180
0.000000
0.147059
0.000000
0.000000
0.000000
0.049180
0.000000
0.117647
0.000000
0.049180
0.073529
0.088235
0.044118
0.073529
0.161765
0.000000
0.000000
0.016393
0.000000
0.014706
0.455882
0.470588
0.382353
0.470588
0.073529
0.000000
0.000000
0.000000
0.000000
0.014706
0.029412
0.044118
0.073529
0.044118
0.044118
0.044118
0.000000
0.000000
0.102941
0.470588
0.029412
0.014706
0.014706
0.073529
0.029412
0.000000
0.029412
0.000000
0.014706
0.000000
0.029412
0.000000
0.000000
0.016393
0.000000
0.044118
0.000000
0.049180
0.073529
0.073529
0.088235
0.132353
0.073529
0.000000
0.000000
0.049180
0.000000
0.147059
0.470588
0.455882
0.411765
0.455882
0.088235
0.000000
0.000000
0.000000
0.000000
0.000000
0.000000
0.000000
0.000000
0.000000
0.000000
0.000000
0.000000
0.000000
0.000000
0.000000
0.029412
0.000000
0.044118
0.044118
0.176471
0.044118
0.411765
0.180000
0.380000
0.262295
0.100000
0.441176
0.000000
0.000000
0.014706
0.117647
0.000000
0.000000
0.294118
0.000000
0.000000
0.000000
0.000000
0.000000
0.220588
0.058824
0.161765
0.014706
0.058824
0.000000
0.000000
0.000000
0.000000
0.000000
0.000000
0.014706
0.102941
0.014706
0.014706
0.000000
0.161765
0.073529
0.014706
0.191176
0.250000
0.191176
0.352941
0.044118
0.029412
0.323529
0.029412
0.044118
0.014706
0.058824
0.014706
0.000000
0.000000
0.000000
0.000000
0.000000
0.100000
0.065574
0.161765
0.058824
0.441176
0.352941
0.102941
0.380000
0.200000
0.278689
0.205882
0.161765
0.117647
0.029412
0.044118
0.000000
0.161765
0.014706
0.308824
0.382353
0.397059
0.294118
0.088235
0.161765
0.132353
0.250000
0.073529
0.058824
0.382353
0.338235
0.573529
0.000000
0.000000
0.121951
0.068182
0.279070
0.132075
0.000000
0.441860
0.340000
0.357143
0.232143
0.285714
0.426230
0.147541
0.209302
0.162791
0.200000
0.069767
0.178571
0.184615
0.112903
0.292308
0.191176
0.353846
0.220588
0.132353
0.000000
0.000000
0.017857
0.053571
0.000000
0.032787
0.163934
0.015385
0.092308
0.073529
0.107692
0.102941
0.117647
0.246154
0.000000
0.014706
0.029412
0.073529
0.014706
0.058824
0.132353
0.308824
0.308824
0.382353
0.294118
0.455882
0.000000
0.000000
0.000000
0.000000
0.000000
0.000000
0.000000
0.000000
0.000000
0.000000
0.000000
0.000000
0.000000
0.046512
0.000000
0.000000
0.000000
0.000000
0.000000
0.000000
0.000000
0.029412
0.352941
0.205882
0.205882
0.323529
0.250000
0.161765
0.132353
0.161765
0.205882
0.176471
0.147059
0.161765
0.147059
0.117647
0.147059
0.117647
0.279412
0.102941
0.264706
0.058824
0.073529
0.088235
0.058824
0.117647
0.029412
0.044118
0.000000
0.000000
0.000000
0.000000
0.000000
0.000000
0.000000
0.000000
0.000000
0.000000
0.000000
0.000000
0.000000
0.000000
0.000000
0.000000
0.000000
0.000000
0.014706
0.014706
0.014706
0.000000
0.000000
0.000000
0.014706
0.044118
0.014706
0.000000
0.029412
0.000000
0.029412
0.029412
0.000000
0.058824
0.029412
0.014706
0.014706
0.117647
0.058824
0.014706
0.102941
0.073529
0.088235
0.147059
0.073529
0.132353
0.161765
0.014706
0.058824
0.058824
0.132353
0.088235
0.014706
0.014706
0.014706
0.029412
0.044118
0.044118
0.029412
0.000000
0.014706
0.029412
0.029412
0.029412
0.014706
0.044118
0.029412
0.029412
0.014706
0.014706
0.058824
0.044118
0.044118
0.088235
0.029412
0.058824
0.058824
0.029412
0.132353
0.176471
0.191176
0.220588
0.250000
0.235294
0.279412
0.308824
0.308824
0.323529
0.250000
0.176471
0.235294
0.235294
0.382353
0.220588
0.367647
0.102941
0.117647
0.044118
0.147059
0.000000
0.000000
0.000000
0.000000
0.000000
0.000000
0.000000
0.000000
0.000000
0.000000
0.000000
0.000000
0.000000
0.000000
0.000000
0.000000
0.000000
0.000000
0.000000
0.000000
0.000000
0.000000
0.014706
0.046512
0.000000
0.053571
0.000000
0.160714
0.114754
0.000000
0.153846
0.076923
0.044118
0.030769
0.088235
0.044118
0.000000
0.338462
0.323529
0.338235
0.191176
0.308824
0.426471
0.147059
0.000000
0.000000
0.000000
0.044118
0.014706
0.116279
0.209302
0.200000
0.465116
0.285714
0.279070
0.360000
0.267857
0.375000
0.132075
0.180328
0.442623
0.121951
0.000000
0.068182
0.000000
0.000000
0.338462
0.230769
0.264706
0.112903
0.220588
0.000000
0.014706
0.000000
0.088235
0.058824
0.117647
0.088235
0.132353
0.132353
0.294118
0.191176
0.088235
0.220588
0.308824
0.338235
0.264706
0.308824
0.102941
0.117647
0.132353
0.220588
0.073529
0.000000
0.000000
0.044118
0.000000
0.161765
0.014706
0.000000
0.279412
0.176471
0.191176
0.088235
0.279412
0.205882
0.044118
0.588235
0.338235
0.470588
0.235294
0.441176
0.029412
0.000000
0.132353
0.044118
0.220588
0.044118
0.000000
0.102941
0.220588
0.220588
0.279412
0.073529
0.161765
0.367647
0.161765
0.367647
0.397059
0.426471
0.367647
0.397059
0.338235
0.044118
0.132353
0.058824
0.205882
0.000000
0.029412
0.308824
0.264706
0.279412
0.132353
0.352941
0.058824
0.044118
0.014706
0.029412
0.029412
0.029412
0.029412
0.029412
0.044118
0.029412
0.014706
0.000000
0.000000
0.014706
0.014706
0.014706
0.058824
0.014706
0.000000
0.000000
0.000000
0.000000
0.000000
0.088235
0.000000
0.220588
0.132353
0.426471
0.191176
0.044118
0.485294
0.558824
0.529412
0.411765
0.294118
0.397059
0.308824
0.250000
0.088235
0.161765
0.000000
0.102941
0.426471
0.176471
0.558824
0.558824
0.308824
0.544118
0.426471
0.000000
0.000000
0.000000
0.000000
0.000000
0.049180
0.000000
0.000000
0.000000
0.049180
0.000000
0.000000
0.107692
0.117647
0.092308
0.132353
0.076923
0.000000
0.000000
0.000000
0.000000
0.000000
0.147059
0.117647
0.102941
0.088235
0.117647
0.088235
0.061538
0.073529
0.073529
0.061538
0.061538
0.046154
0.049180
0.049180
0.073529
0.058824
0.058824
0.044118
0.058824
0.044118
0.030769
0.000000
0.000000
0.000000
0.000000
0.000000
0.161765
0.455882
0.102941
0.073529
0.102941
0.191176
0.088235
0.088235
0.455882
0.058824
0.058824
0.088235
0.058824
0.044118
0.058824
0.029412
0.044118
0.058824
0.470588
0.058824
0.117647
0.058824
0.000000
0.000000
0.000000
0.000000
0.000000
0.016393
0.000000
0.000000
0.000000
0.000000
0.000000
0.000000
0.015385
0.014706
0.000000
0.014706
0.000000
0.000000
0.000000
0.000000
0.000000
0.000000
0.000000
0.029412
0.029412
0.044118
0.000000
0.029412
0.029412
0.029412
0.029412
0.029412
0.029412
0.014706
0.029412
0.029412
0.000000
0.014706
0.000000
0.000000
0.000000
0.000000
0.014706
0.132353
0.117647
0.044118
0.117647
0.044118
0.000000
0.000000
0.014706
0.014706
0.014706
0.029412
0.029412
0.073529
0.058824
0.044118
0.058824
0.029412
0.029412
0.044118
0.044118
0.044118
0.029412
0.029412
0.029412
0.014706
0.014706
0.044118
0.029412
0.029412
0.014706
0.029412
0.000000
0.000000
0.000000
0.000000
0.000000
0.014706
0.014706
0.014706
0.014706
0.044118
0.014706
0.029412
0.029412
0.044118
0.014706
0.014706
0.029412
0.029412
0.000000
0.014706
0.029412
0.102941
0.058824
0.044118
0.205882
0.044118
0.000000
0.000000
0.000000
0.000000
0.000000
0.000000
0.000000
0.000000
0.000000
0.000000
0.000000
0.000000
0.000000
0.000000
0.000000
0.000000
0.000000
0.000000
0.000000
0.000000
0.000000
0.000000
0.000000
0.000000
0.000000
0.000000
0.000000
0.000000
0.000000
0.000000
0.000000
0.000000
0.000000
0.000000
0.000000
0.000000
0.000000
0.000000
0.000000
0.000000
0.000000
0.000000
0.000000
0.000000
0.000000
0.000000
0.000000
0.000000
0.000000
0.000000
0.000000
0.000000
0.000000
0.000000
0.000000
0.000000
0.000000
0.000000
0.000000
0.000000
0.000000
0.000000
0.000000
0.000000
0.000000
0.000000
0.000000
0.000000
0.000000
0.000000
0.000000
0.000000
0.000000
0.044118
0.000000
0.102941
0.044118
0.044118
0.000000
0.102941
0.044118
0.000000
0.176471
0.308824
0.176471
0.426471
0.176471
0.000000
0.000000
0.000000
0.044118
0.000000
0.000000
0.000000
0.000000
0.000000
0.000000
0.000000
0.000000
0.000000
0.000000
0.000000
0.000000
0.000000
0.000000
0.000000
0.000000
0.000000
0.000000
0.000000
0.000000
0.000000
0.000000
0.000000
0.000000
0.000000
0.000000
0.000000
0.000000
0.000000
0.000000
0.000000
0.000000
0.000000
0.000000
0.000000
0.000000
0.000000
0.000000
0.029412
0.015385
0.000000
0.000000
0.000000
0.000000
0.000000
0.058824
0.044118
0.058824
0.044118
0.073529
0.058824
0.030769
0.073529
0.058824
0.061538
0.046154
0.061538
0.049180
0.032787
0.088235
0.088235
0.088235
0.073529
0.117647
0.132353
0.061538
0.000000
0.000000
0.000000
0.000000
0.000000
0.058824
0.132353
0.058824
0.102941
0.073529
0.044118
0.102941
0.088235
0.455882
0.117647
0.102941
0.088235
0.058824
0.044118
0.058824
0.029412
0.073529
0.088235
0.455882
0.147059
0.176471
0.176471
0.000000
0.000000
0.000000
0.000000
0.000000
0.049180
0.000000
0.000000
0.000000
0.049180
0.000000
0.000000
0.076923
0.102941
0.092308
0.147059
0.112903
0.000000
0.000000
0.000000
0.000000
0.000000
0.000000
0.000000
0.000000
0.000000
0.000000
0.000000
0.000000
0.000000
0.000000
0.000000
0.049180
0.049180
0.000000
0.000000
0.000000
0.000000
0.000000
0.107692
0.107692
0.147059
0.092308
0.191176
0.000000
0.000000
0.000000
0.000000
0.000000
0.049180
0.049180
0.061538
0.061538
0.073529
0.061538
0.088235
0.088235
0.076923
0.046154
0.058824
0.058824
0.073529
0.044118
0.058824
0.088235
0.102941
0.102941
0.132353
0.132353
0.205882
0.000000
0.000000
0.000000
0.000000
0.000000
0.000000
0.000000
0.000000
0.000000
0.000000
0.000000
0.032787
0.000000
0.000000
0.000000
0.000000
0.000000
0.030769
0.015385
0.029412
0.000000
0.029412
0.235294
0.176471
0.455882
0.102941
0.191176
0.088235
0.455882
0.117647
0.088235
0.058824
0.235294
0.397059
0.088235
0.058824
0.485294
0.058824
0.044118
0.102941
0.058824
0.073529
0.058824
0.073529
0.000000
0.000000
0.000000
0.000000
0.000000
0.000000
0.000000
0.000000
0.000000
0.000000
0.000000
0.000000
0.000000
0.000000
0.000000
0.000000
0.014706
0.000000
0.044118
0.058824
0.014706
0.000000
0.000000
0.029412
0.014706
0.044118
0.058824
0.044118
0.058824
0.029412
0.073529
0.058824
0.029412
0.044118
0.058824
0.058824
0.044118
0.029412
0.058824
0.029412
0.014706
0.014706
0.000000
0.014706
0.000000
0.000000
0.014706
0.029412
0.058824
0.044118
0.058824
0.058824
0.058824
0.117647
0.088235
0.088235
0.073529
0.044118
0.044118
0.058824
0.029412
0.014706
0.029412
0.014706
0.014706
0.014706
0.073529
0.044118
0.044118
0.014706
0.073529
0.044118
0.000000
0.000000
0.000000
0.000000
0.000000
0.000000
0.088235
0.102941
0.147059
0.029412
0.044118
0.014706
0.029412
0.029412
0.029412
0.014706
0.029412
0.058824
0.000000
0.000000
0.000000
0.000000
0.000000
0.058824
0.029412
0.058824
0.014706
0.073529
0.000000
0.000000
0.000000
0.000000
0.000000
0.000000
0.000000
0.000000
0.000000
0.000000
0.032787
0.000000
0.000000
0.000000
0.000000
0.000000
0.000000
0.015385
0.030769
0.029412
0.046154
0.044118
0.000000
0.000000
0.000000
0.000000
0.000000
0.049180
0.049180
0.061538
0.061538
0.073529
0.061538
0.088235
0.088235
0.061538
0.061538
0.073529
0.117647
0.088235
0.161765
0.191176
0.117647
0.058824
0.073529
0.058824
0.088235
0.058824
0.000000
0.000000
0.000000
0.000000
0.000000
0.000000
0.000000
0.000000
0.000000
0.000000
0.049180
0.049180
0.000000
0.000000
0.000000
0.000000
0.000000
0.076923
0.092308
0.117647
0.112903
0.176471
0.058824
0.088235
0.485294
0.088235
0.058824
0.117647
0.455882
0.117647
0.058824
0.102941
0.397059
0.102941
0.176471
0.220588
0.455882
0.264706
0.191176
0.073529
0.073529
0.102941
0.205882
0.088235
0.029412
0.000000
0.000000
0.000000
0.000000
0.000000
0.000000
0.000000
0.000000
0.000000
0.000000
0.000000
0.000000
0.000000
0.000000
0.000000
0.000000
0.000000
0.000000
0.000000
0.000000
0.000000
0.000000
0.000000
0.000000
0.000000
0.000000
0.000000
0.000000
0.000000
0.000000
0.000000
0.000000
0.000000
0.000000
0.000000
0.000000
0.000000
0.000000
0.000000
0.000000
0.000000
0.000000
0.000000
0.000000
0.000000
0.000000
0.000000
0.000000
0.000000
0.000000
0.000000
0.000000
0.000000
0.000000
0.000000
0.000000
0.000000
0.000000
0.000000
0.000000
0.029412
0.000000
0.029412
0.000000
0.000000
0.000000
0.000000
0.000000
0.000000
0.000000
0.000000
0.044118
0.000000
0.102941
0.000000
0.044118
0.102941
0.102941
0.102941
0.176471
0.176471
0.000000
0.000000
0.044118
0.000000
0.102941
0.308824
0.308824
0.426471
0.308824
0.544118
0.000000
0.121951
0.068182
0.279070
0.132075
0.465116
0.360000
0.339286
0.267857
0.285714
0.426230
0.180328
0.209302
0.116279
0.180000
0.046512
0.160714
0.200000
0.292308
0.235294
0.323077
0.279412
0.000000
0.000000
0.000000
0.053571
0.000000
0.000000
0.098361
0.000000
0.030769
0.058824
0.061538
0.058824
0.117647
0.153846
0.000000
0.000000
0.000000
0.000000
0.000000
0.000000
0.058824
0.308824
0.205882
0.352941
0.191176
0.441176
0.000000
0.000000
0.000000
0.000000
0.000000
0.000000
0.000000
0.000000
0.000000
0.000000
0.000000
0.000000
0.000000
0.000000
0.000000
0.000000
0.000000
0.000000
0.000000
0.000000
0.000000
0.000000
0.323529
0.220588
0.397059
0.147059
0.294118
0.102941
0.117647
0.147059
0.161765
0.044118
0.088235
0.220588
0.029412
0.014706
0.014706
0.014706
0.014706
0.088235
0.088235
0.102941
0.044118
0.058824
0.000000
0.000000
0.000000
0.000000
0.000000
0.000000
0.000000
0.000000
0.000000
0.000000
0.000000
0.014706
0.000000
0.000000
0.000000
0.000000
0.000000
0.014706
0.044118
0.044118
0.014706
0.000000
0.000000
0.000000
0.000000
0.014706
0.102941
0.044118
0.073529
0.014706
0.132353
0.058824
0.029412
0.102941
0.029412
0.029412
0.000000
0.029412
0.029412
0.014706
0.147059
0.073529
0.102941
0.029412
0.132353
0.088235
0.014706
0.014706
0.000000
0.014706
0.014706
0.014706
0.147059
0.147059
0.205882
0.191176
0.308824
0.294118
0.220588
0.161765
0.264706
0.264706
0.294118
0.220588
0.264706
0.250000
0.088235
0.102941
0.044118
0.117647
0.000000
0.000000
0.117647
0.235294
0.352941
0.220588
0.294118
0.220588
0.014706
0.014706
0.044118
0.058824
0.029412
0.044118
0.029412
0.058824
0.058824
0.029412
0.029412
0.014706
0.058824
0.088235
0.088235
0.102941
0.029412
0.000000
0.014706
0.000000
0.000000
0.044118
0.000000
0.000000
0.000000
0.000000
0.000000
0.000000
0.000000
0.000000
0.000000
0.000000
0.000000
0.000000
0.000000
0.000000
0.000000
0.000000
0.000000
0.000000
0.000000
0.000000
0.000000
0.044118
0.046512
0.000000
0.053571
0.017857
0.160714
0.163934
0.016393
0.230769
0.107692
0.117647
0.061538
0.132353
0.117647
0.015385
0.323077
0.426471
0.308824
0.367647
0.235294
0.441176
0.250000
0.000000
0.073529
0.014706
0.161765
0.088235
0.139535
0.209302
0.200000
0.465116
0.285714
0.279070
0.380000
0.267857
0.357143
0.132075
0.180328
0.426230
0.121951
0.000000
0.068182
0.292308
0.200000
0.220588
0.161765
0.264706
0.264706
0.264706
0.176471
0.250000
0.191176
0.161765
0.176471
0.132353
0.058824
0.132353
0.205882
0.264706
0.441176
0.044118
0.073529
0.073529
0.000000
0.014706
0.014706
0.029412
0.000000
0.044118
0.014706
0.014706
0.014706
0.029412
0.000000
0.000000
0.029412
0.058824
0.058824
0.191176
0.132353
0.000000
0.000000
0.000000
0.044118
0.000000
0.250000
0.235294
0.308824
0.250000
0.411765
0.632353
0.235294
0.338235
0.500000
0.441176
0.323529
0.411765
0.382353
0.191176
0.176471
0.220588
0.132353
0.294118
0.029412
0.044118
0.367647
0.117647
0.205882
0.058824
0.338235
0.029412
0.279412
0.323529
0.367647
0.264706
0.250000
0.147059
0.161765
0.058824
0.176471
0.000000
0.000000
0.176471
0.058824
0.000000
0.000000
0.073529
0.000000
0.014706
0.088235
0.250000
0.161765
0.485294
0.294118
0.426471
0.558824
0.441176
0.529412
0.191176
0.323529
0.397059
0.220588
0.073529
0.132353
0.558824
0.426471
0.558824
VECTORS displacements double 
-0.001995 0.000000 0.000000 
0.001995 0.000000 0.000000 
0.001995 0.000000 0.000000 
-0.001995 0.000000 0.000000 
-0.001995 0.000000 0.000000 
-0.001995 0.000000 0.000000 
-0.001995 0.000000 0.000000 
-0.001995 0.000000 0.000000 
0.002460 0.004972 -0.000338 
-0.000023 0.003715 0.000072 
0.000102 0.003294 0.000012 
0.000141 0.003086 0.000001 
0.000141 0.002976 -0.000253 
0.000146 0.002915 -0.000191 
0.000169 0.002808 0.000030 
0.000146 0.002740 -0.000262 
0.000139 0.002638 -0.000006 
0.000132 0.002506 0.000071 
0.000182 0.002452 0.000073 
0.000153 0.002352 0.000089 
0.000155 0.002270 0.000073 
0.000191 0.002197 -0.000030 
0.000217 0.002138 0.000033 
0.000275 0.002136 -0.000001 
0.000295 0.002160 -0.000048 
0.000345 0.002124 -0.000056 
0.000393 0.002207 -0.000167 
0.000411 0.002344 -0.000202 
0.000454 0.002487 -0.000042 
0.000531 0.002786 -0.000020 
-0.002273 0.003591 -0.000073 