# vtk DataFile Version 2.0
Solution time step = 399 
ASCII

DATASET UNSTRUCTURED_GRID
POINTS 2113 double
0.000000 0.000000 0.000000 
1.000000 0.000000 0.000000 
1.000000 1.000000 0.000000 
0.000000 1.000000 0.000000 
0.031250 0.000000 0.000000 
0.062500 0.000000 0.000000 
0.093750 0.000000 0.000000 
0.125000 0.000000 0.000000 
0.156250 0.000000 0.000000 
0.187500 0.000000 0.000000 
0.218750 0.000000 0.000000 
0.250000 0.000000 0.000000 
0.281250 0.000000 0.000000 
0.312500 0.000000 0.000000 
0.343750 0.000000 0.000000 
0.375000 0.000000 0.000000 
0.406250 0.000000 0.000000 
0.437500 0.000000 0.000000 
0.468750 0.000000 0.000000 
0.500000 0.000000 0.000000 
0.531250 0.000000 0.000000 
0.562500 0.000000 0.000000 
0.593750 0.000000 0.000000 
0.625000 0.000000 0.000000 
0.656250 0.000000 0.000000 
0.687500 0.000000 0.000000 
0.718750 0.000000 0.000000 
0.750000 0.000000 0.000000 
0.781250 0.000000 0.000000 
0.812500 0.000000 0.000000 
0.843750 0.000000 0.000000 
0.875000 0.000000 0.000000 
0.906250 0.000000 0.000000 
0.937500 0.000000 0.000000 
0.968750 0.000000 0.000000 
1.000000 0.031250 0.000000 
1.000000 0.062500 0.000000 
1.000000 0.093750 0.000000 
1.000000 0.125000 0.000000 
1.000000 0.156250 0.000000 
1.000000 0.187500 0.000000 
1.000000 0.218750 0.000000 
1.000000 0.250000 0.000000 
1.000000 0.281250 0.000000 
1.000000 0.312500 0.000000 
1.000000 0.343750 0.000000 
1.000000 0.375000 0.000000 
1.000000 0.406250 0.000000 
1.000000 0.437500 0.000000 
1.000000 0.468750 0.000000 
1.000000 0.500000 0.000000 
1.000000 0.531250 0.000000 
1.000000 0.562500 0.000000 
1.000000 0.593750 0.000000 
1.000000 0.625000 0.000000 
1.000000 0.656250 0.000000 
1.000000 0.687500 0.000000 
1.000000 0.718750 0.000000 
1.000000 0.750000 0.000000 
1.000000 0.781250 0.000000 
1.000000 0.812500 0.000000 
1.000000 0.843750 0.000000 
1.000000 0.875000 0.000000 
1.000000 0.906250 0.000000 
1.000000 0.937500 0.000000 
1.000000 0.968750 0.000000 
0.968750 1.000000 0.000000 
0.937500 1.000000 0.000000 
0.906250 1.000000 0.000000 
0.875000 1.000000 0.000000 
0.843750 1.000000 0.000000 
0.812500 1.000000 0.000000 
0.781250 1.000000 0.000000 
0.750000 1.000000 0.000000 
0.718750 1.000000 0.000000 
0.687500 1.000000 0.000000 
0.656250 1.000000 0.000000 
0.625000 1.000000 0.000000 
0.593750 1.000000 0.000000 
0.562500 1.000000 0.000000 
0.531250 1.000000 0.000000 
0.500000 1.000000 0.000000 
0.468750 1.000000 0.000000 
0.437500 1.000000 0.000000 
0.406250 1.000000 0.000000 
0.375000 1.000000 0.000000 
0.343750 1.000000 0.000000 
0.312500 1.000000 0.000000 
0.281250 1.000000 0.000000 
0.250000 1.000000 0.000000 
0.218750 1.000000 0.000000 
0.187500 1.000000 0.000000 
0.156250 1.000000 0.000000 
0.125000 1.000000 0.000000 
0.093750 1.000000 0.000000 
0.062500 1.000000 0.000000 
0.031250 1.000000 0.000000 
0.000000 0.968750 0.000000 
0.000000 0.937500 0.000000 
0.000000 0.906250 0.000000 
0.000000 0.875000 0.000000 
0.000000 0.843750 0.000000 
0.000000 0.812500 0.000000 
0.000000 0.781250 0.000000 
0.000000 0.750000 0.000000 
0.000000 0.718750 0.000000 
0.000000 0.687500 0.000000 
0.000000 0.656250 0.000000 
0.000000 0.625000 0.000000 
0.000000 0.593750 0.000000 
0.000000 0.562500 0.000000 
0.000000 0.531250 0.000000 
0.000000 0.500000 0.000000 
0.000000 0.468750 0.000000 
0.000000 0.437500 0.000000 
0.000000 0.406250 0.000000 
0.000000 0.375000 0.000000 
0.000000 0.343750 0.000000 
0.000000 0.312500 0.000000 
0.000000 0.281250 0.000000 
0.000000 0.250000 0.000000 
0.000000 0.218750 0.000000 
0.000000 0.187500 0.000000 
0.000000 0.156250 0.000000 
0.000000 0.125000 0.000000 
0.000000 0.093750 0.000000 
0.000000 0.062500 0.000000 
0.000000 0.031250 0.000000 
0.500000 0.500000 0.000000 
0.750000 0.250000 0.000000 
0.250000 0.250000 0.000000 
0.250000 0.750000 0.000000 
0.750000 0.750000 0.000000 
0.375000 0.125000 0.000000 
0.125000 0.125000 0.000000 
0.625000 0.125000 0.000000 
0.500000 0.250000 0.000000 
0.875000 0.125000 0.000000 
0.625000 0.375000 0.000000 
0.375000 0.375000 0.000000 
0.125000 0.375000 0.000000 
0.250000 0.500000 0.000000 
0.125000 0.625000 0.000000 
0.375000 0.625000 0.000000 
0.125000 0.875000 0.000000 
0.875000 0.375000 0.000000 
0.875000 0.625000 0.000000 
0.750000 0.500000 0.000000 
0.875000 0.875000 0.000000 
0.625000 0.625000 0.000000 
0.625000 0.875000 0.000000 
0.375000 0.875000 0.000000 
0.500000 0.750000 0.000000 
0.187500 0.062500 0.000000 
0.062500 0.062500 0.000000 
0.312500 0.062500 0.000000 
0.250000 0.125000 0.000000 
0.437500 0.062500 0.000000 
0.312500 0.187500 0.000000 
0.187500 0.187500 0.000000 
0.562500 0.062500 0.000000 
0.500000 0.125000 0.000000 
0.562500 0.187500 0.000000 
0.437500 0.187500 0.000000 
0.687500 0.187500 0.000000 
0.625000 0.250000 0.000000 
0.375000 0.250000 0.000000 
0.687500 0.062500 0.000000 
0.812500 0.062500 0.000000 
0.750000 0.125000 0.000000 
0.937500 0.062500 0.000000 
0.812500 0.187500 0.000000 
0.437500 0.312500 0.000000 
0.312500 0.312500 0.000000 
0.562500 0.312500 0.000000 
0.500000 0.375000 0.000000 
0.687500 0.312500 0.000000 
0.562500 0.437500 0.000000 
0.437500 0.437500 0.000000 
0.062500 0.187500 0.000000 
0.125000 0.250000 0.000000 
0.062500 0.312500 0.000000 
0.187500 0.312500 0.000000 
0.062500 0.437500 0.000000 
0.250000 0.375000 0.000000 
0.187500 0.437500 0.000000 
0.187500 0.562500 0.000000 
0.125000 0.500000 0.000000 
0.250000 0.625000 0.000000 
0.187500 0.687500 0.000000 
0.062500 0.562500 0.000000 
0.312500 0.437500 0.000000 
0.375000 0.500000 0.000000 
0.312500 0.562500 0.000000 
0.437500 0.562500 0.000000 
0.312500 0.687500 0.000000 
0.062500 0.687500 0.000000 
0.125000 0.750000 0.000000 
0.062500 0.812500 0.000000 
0.187500 0.812500 0.000000 
0.062500 0.937500 0.000000 
0.937500 0.187500 0.000000 
0.937500 0.312500 0.000000 
0.875000 0.250000 0.000000 
0.937500 0.437500 0.000000 
0.812500 0.312500 0.000000 
0.937500 0.562500 0.000000 
0.875000 0.500000 0.000000 
0.812500 0.562500 0.000000 
0.812500 0.437500 0.000000 
0.812500 0.687500 0.000000 
0.750000 0.625000 0.000000 
0.750000 0.375000 0.000000 
0.937500 0.687500 0.000000 
0.937500 0.812500 0.000000 
0.875000 0.750000 0.000000 
0.937500 0.937500 0.000000 
0.812500 0.812500 0.000000 
0.687500 0.437500 0.000000 
0.687500 0.562500 0.000000 
0.625000 0.500000 0.000000 
0.687500 0.687500 0.000000 
0.562500 0.562500 0.000000 
0.812500 0.937500 0.000000 
0.687500 0.937500 0.000000 
0.750000 0.875000 0.000000 
0.562500 0.937500 0.000000 
0.687500 0.812500 0.000000 
0.437500 0.937500 0.000000 
0.500000 0.875000 0.000000 
0.437500 0.812500 0.000000 
0.562500 0.812500 0.000000 
0.312500 0.812500 0.000000 
0.375000 0.750000 0.000000 
0.625000 0.750000 0.000000 
0.312500 0.937500 0.000000 
0.187500 0.937500 0.000000 
0.250000 0.875000 0.000000 
0.562500 0.687500 0.000000 
0.437500 0.687500 0.000000 
0.500000 0.625000 0.000000 
0.093750 0.031250 0.000000 
0.031250 0.031250 0.000000 
0.156250 0.031250 0.000000 
0.125000 0.062500 0.000000 
0.218750 0.031250 0.000000 
0.156250 0.093750 0.000000 
0.093750 0.093750 0.000000 
0.281250 0.031250 0.000000 
0.250000 0.062500 0.000000 
0.281250 0.093750 0.000000 
0.218750 0.093750 0.000000 
0.343750 0.093750 0.000000 
0.312500 0.125000 0.000000 
0.187500 0.125000 0.000000 
0.343750 0.031250 0.000000 
0.406250 0.031250 0.000000 
0.375000 0.062500 0.000000 
0.468750 0.031250 0.000000 
0.406250 0.093750 0.000000 
0.218750 0.156250 0.000000 
0.156250 0.156250 0.000000 
0.281250 0.156250 0.000000 
0.250000 0.187500 0.000000 
0.343750 0.156250 0.000000 
0.281250 0.218750 0.000000 
0.218750 0.218750 0.000000 
0.531250 0.031250 0.000000 
0.500000 0.062500 0.000000 
0.531250 0.093750 0.000000 
0.468750 0.093750 0.000000 
0.593750 0.093750 0.000000 
0.562500 0.125000 0.000000 
0.437500 0.125000 0.000000 
0.593750 0.156250 0.000000 
0.531250 0.156250 0.000000 
0.500000 0.187500 0.000000 
0.468750 0.156250 0.000000 
0.531250 0.218750 0.000000 
0.468750 0.218750 0.000000 
0.406250 0.156250 0.000000 
0.656250 0.156250 0.000000 
0.625000 0.187500 0.000000 
0.656250 0.218750 0.000000 
0.593750 0.218750 0.000000 
0.718750 0.218750 0.000000 
0.687500 0.250000 0.000000 
0.562500 0.250000 0.000000 
0.375000 0.187500 0.000000 
0.406250 0.218750 0.000000 
0.343750 0.218750 0.000000 
0.437500 0.250000 0.000000 
0.312500 0.250000 0.000000 
0.593750 0.031250 0.000000 
0.656250 0.031250 0.000000 
0.625000 0.062500 0.000000 
0.718750 0.031250 0.000000 
0.656250 0.093750 0.000000 
0.781250 0.031250 0.000000 
0.750000 0.062500 0.000000 
0.781250 0.093750 0.000000 
0.718750 0.093750 0.000000 
0.843750 0.093750 0.000000 
0.812500 0.125000 0.000000 
0.687500 0.125000 0.000000 
0.843750 0.031250 0.000000 
0.906250 0.031250 0.000000 
0.875000 0.062500 0.000000 
0.968750 0.031250 0.000000 
0.906250 0.093750 0.000000 
0.718750 0.156250 0.000000 
0.781250 0.156250 0.000000 
0.750000 0.187500 0.000000 
0.843750 0.156250 0.000000 
0.781250 0.218750 0.000000 
0.343750 0.281250 0.000000 
0.281250 0.281250 0.000000 
0.406250 0.281250 0.000000 
0.375000 0.312500 0.000000 
0.468750 0.281250 0.000000 
0.406250 0.343750 0.000000 
0.343750 0.343750 0.000000 
0.531250 0.281250 0.000000 
0.500000 0.312500 0.000000 
0.531250 0.343750 0.000000 
0.468750 0.343750 0.000000 
0.593750 0.343750 0.000000 
0.562500 0.375000 0.000000 
0.437500 0.375000 0.000000 
0.593750 0.281250 0.000000 
0.656250 0.281250 0.000000 
0.625000 0.312500 0.000000 
0.718750 0.281250 0.000000 
0.656250 0.343750 0.000000 
0.468750 0.406250 0.000000 
0.406250 0.406250 0.000000 
0.531250 0.406250 0.000000 
0.500000 0.437500 0.000000 
0.593750 0.406250 0.000000 
0.531250 0.468750 0.000000 
0.468750 0.468750 0.000000 
0.031250 0.093750 0.000000 
0.062500 0.125000 0.000000 
0.031250 0.156250 0.000000 
0.093750 0.156250 0.000000 
0.031250 0.218750 0.000000 
0.125000 0.187500 0.000000 
0.093750 0.218750 0.000000 
0.093750 0.281250 0.000000 
0.062500 0.250000 0.000000 
0.125000 0.312500 0.000000 
0.093750 0.343750 0.000000 
0.031250 0.281250 0.000000 
[...]
POINT_DATA 2113
SCALARS damage double
LOOKUP_TABLE default
0.000000
0.000000
0.000000
0.000000
0.000000
0.060606
0.189189
0.378378
0.378378
0.135135
0.081081
0.000000
0.000000
0.000000
0.000000
0.000000
0.000000
0.000000
0.000000
0.000000
0.000000
0.000000
0.000000
0.000000
0.000000
0.000000
0.000000
0.000000
0.081081
0.162162
0.351351
0.378378
0.189189
0.060606
0.000000
0.000000
0.000000
0.000000
0.000000
0.000000
0.000000
0.000000
0.000000
0.000000
0.000000
0.000000
0.000000
0.000000
0.000000
0.000000
0.000000
0.000000
0.000000
0.000000
0.000000
0.000000
0.000000
0.000000
0.000000
0.000000
0.000000
0.000000
0.000000
0.000000
0.000000
0.000000
0.000000
0.060606
0.189189
0.378378
0.405405
0.135135
0.081081
0.000000
0.000000
0.000000
0.000000
0.000000
0.000000
0.027027
0.000000
0.000000
0.000000
0.000000
0.000000
0.000000
0.000000
0.000000
0.000000
0.000000
0.081081
0.135135
0.405405
0.378378
0.189189
0.060606
0.000000
0.000000
0.000000
0.000000
0.000000
0.000000
0.000000
0.000000
0.000000
0.000000
0.000000
0.000000
0.000000
0.000000
0.000000
0.000000
0.000000
0.000000
0.000000
0.000000
0.000000
0.000000
0.000000
0.000000
0.000000
0.000000
0.000000
0.000000
0.000000
0.000000
0.000000
0.000000
0.544118
0.014706
0.132353
0.014706
0.073529
0.014706
0.161765
0.088235
0.191176
0.191176
0.000000
0.000000
0.058824
0.000000
0.029412
0.000000
0.191176
0.029412
0.058824
0.000000
0.205882
0.000000
0.000000
0.058824
0.176471
0.213115
0.055556
0.000000
0.132353
0.000000
0.014706
0.426471
0.000000
0.000000
0.132353
0.044118
0.176471
0.191176
0.029412
0.000000
0.311475
0.088235
0.055556
0.147059
0.058824
0.014706
0.382353
0.544118
0.000000
0.176471
0.102941
0.049180
0.088235
0.032787
0.044118
0.000000
0.000000
0.044118
0.044118
0.014706
0.000000
0.029412
0.000000
0.000000
0.000000
0.000000
0.102941
0.000000
0.016393
0.073529
0.049180
0.205882
0.055556
0.049180
0.000000
0.073529
0.000000
0.044118
0.000000
0.014706
0.044118
0.029412
0.073529
0.000000
0.000000
0.049180
0.049180
0.102941
0.055556
0.441176
0.000000
0.000000
0.000000
0.000000
0.176471
0.245902
0.000000
0.117647
0.000000
0.029412
0.000000
0.000000
0.161765
0.014706
0.161765
0.250000
0.014706
0.000000
0.295082
0.117647
0.073529
0.308824
0.558824
0.180000
0.000000
0.380000
0.245902
0.100000
0.426471
0.117647
0.000000
0.032787
0.044118
0.176471
0.014706
0.014706
0.411765
0.000000
0.000000
0.000000
0.000000
0.000000
0.235294
0.455882
0.132353
0.176471
0.029412
0.073529
0.132353
0.000000
0.000000
0.000000
0.000000
0.000000
0.014706
0.000000
0.132353
0.029412
0.044118
0.014706
0.176471
0.029412
0.029412
0.205882
0.294118
0.205882
0.352941
0.058824
0.044118
0.338235
0.029412
0.058824
0.029412
0.044118
0.029412
0.000000
0.000000
0.000000
0.000000
0.000000
0.120000
0.049180
0.205882
0.088235
0.441176
0.235294
0.102941
0.400000
0.200000
0.262295
0.000000
0.147059
0.176471
0.176471
0.117647
0.441176
0.044118
0.029412
0.029412
0.073529
0.000000
0.161765
0.000000
0.000000
0.352941
0.308824
0.441176
0.235294
0.117647
0.220588
0.088235
0.294118
0.088235
0.117647
0.014706
0.000000
0.308824
0.000000
0.411765
0.558824
0.044118
0.426471
0.308824
0.000000
0.049180
0.000000
0.073529
0.000000
0.117647
0.073529
0.058824
0.049180
0.058824
0.044118
0.000000
0.455882
0.382353
0.470588
0.102941
0.147059
0.000000
0.000000
0.000000
0.000000
0.000000
0.029412
0.044118
0.014706
0.029412
0.000000
0.000000
0.044118
0.000000
0.029412
0.044118
0.044118
0.044118
0.014706
0.014706
0.000000
0.000000
0.029412
0.044118
0.014706
0.029412
0.073529
0.000000
0.000000
0.000000
0.000000
0.000000
0.000000
0.000000
0.000000
0.000000
0.000000
0.000000
0.000000
0.000000
0.000000
0.000000
0.000000
0.000000
0.000000
0.102941
0.000000
0.308824
0.000000
0.000000
0.000000
0.000000
0.000000
0.000000
0.000000
0.000000
0.000000
0.014706
0.000000
0.058824
0.044118
0.073529
0.049180
0.088235
0.088235
0.000000
0.485294
0.058824
0.455882
0.029412
0.455882
0.000000
0.049180
0.000000
0.147059
0.000000
0.000000
0.000000
0.049180
0.000000
0.117647
0.000000
0.032787
0.044118
0.073529
0.000000
0.058824
0.102941
0.000000
0.000000
0.000000
0.000000
0.000000
0.485294
0.161765
0.044118
0.102941
0.044118
0.000000
0.000000
0.000000
0.000000
0.014706
0.029412
0.014706
0.073529
0.044118
0.029412
0.044118
0.000000
0.000000
0.044118
0.485294
0.029412
0.029412
0.014706
0.073529
0.029412
0.000000
0.044118
0.000000
0.014706
0.000000
0.000000
0.000000
0.000000
0.016393
0.000000
0.044118
0.000000
0.049180
0.073529
0.073529
0.102941
0.176471
0.073529
0.000000
0.000000
0.049180
0.000000
0.161765
0.470588
0.455882
0.411765
0.455882
0.191176
0.000000
0.000000
0.000000
0.000000
0.000000
0.000000
0.000000
0.000000
0.000000
0.000000
0.000000
0.000000
0.000000
0.000000
0.000000
0.014706
0.000000
0.044118
0.044118
0.176471
0.044118
0.426471
0.200000
0.380000
0.295082
0.100000
0.441176
0.000000
0.016393
0.029412
0.117647
0.000000
0.014706
0.323529
0.000000
0.000000
0.000000
0.000000
0.000000
0.205882
0.088235
0.161765
0.014706
0.088235
0.000000
0.000000
0.000000
0.000000
0.000000
0.014706
0.014706
0.132353
0.029412
0.073529
0.014706
0.176471
0.088235
0.029412
0.176471
0.250000
0.205882
0.294118
0.044118
0.044118
0.367647
0.029412
0.044118
0.029412
0.088235
0.029412
0.000000
0.000000
0.000000
0.000000
0.000000
0.100000
0.049180
0.176471
0.073529
0.441176
0.338235
0.088235
0.380000
0.200000
0.278689
0.205882
0.161765
0.117647
0.014706
0.044118
0.029412
0.088235
0.014706
0.382353
0.294118
0.367647
0.279412
0.117647
0.176471
0.132353
0.279412
0.088235
0.088235
0.411765
0.323529
0.558824
0.000000
0.000000
0.121951
0.068182
0.279070
0.132075
0.000000
0.418605
0.320000
0.321429
0.232143
0.303571
0.426230
0.147541
0.209302
0.116279
0.180000
0.046512
0.142857
0.184615
0.096774
0.261538
0.176471
0.323077
0.235294
0.117647
0.000000
0.000000
0.017857
0.053571
0.000000
0.016393
0.114754
0.000000
0.046154
0.073529
0.076923
0.102941
0.117647
0.200000
0.000000
0.000000
0.000000
0.014706
0.014706
0.029412
0.088235
0.308824
0.264706
0.308824
0.220588
0.455882
0.000000
0.000000
0.000000
0.000000
0.000000
0.000000
0.000000
0.000000
0.000000
0.000000
0.000000
0.000000
0.000000
0.000000
0.000000
0.000000
0.000000
0.000000
0.000000
0.014706
0.000000
0.014706
0.250000
0.220588
0.308824
0.426471
0.147059
0.308824
0.205882
0.132353
0.176471
0.132353
0.205882
0.058824
0.102941
0.250000
0.044118
0.014706
0.014706
0.014706
0.044118
0.161765
0.220588
0.132353
0.117647
0.044118
0.088235
0.117647
0.000000
0.000000
0.000000
0.000000
0.000000
0.000000
0.000000
0.000000
0.000000
0.000000
0.000000
0.014706
0.000000
0.000000
0.000000
0.000000
0.000000
0.014706
0.044118
0.044118
0.014706
0.000000
0.000000
0.000000
0.000000
0.000000
0.117647
0.058824
0.073529
0.014706
0.102941
0.058824
0.000000
0.073529
0.014706
0.014706
0.029412
0.073529
0.044118
0.000000
0.161765
0.073529
0.088235
0.058824
0.191176
0.088235
0.073529
0.014706
0.014706
0.029412
0.044118
0.029412
0.161765
0.176471
0.250000
0.205882
0.323529
0.323529
0.220588
0.205882
0.264706
0.308824
0.323529
0.205882
0.308824
0.250000
0.088235
0.117647
0.044118
0.147059
0.014706
0.014706
0.147059
0.279412
0.323529
0.250000
0.264706
0.235294
0.029412
0.014706
0.029412
0.044118
0.044118
0.044118
0.044118
0.044118
0.058824
0.029412
0.029412
0.029412
0.058824
0.058824
0.058824
0.102941
0.029412
0.044118
0.029412
0.014706
0.029412
0.044118
0.000000
0.000000
0.000000
0.000000
0.000000
0.000000
0.000000
0.000000
0.000000
0.000000
0.000000
0.000000
0.000000
0.000000
0.000000
0.000000
0.000000
0.000000
0.000000
0.014706
0.000000
0.044118
0.046512
0.000000
0.053571
0.017857
0.196429
0.180328
0.032787
0.307692
0.092308
0.088235
0.061538
0.117647
0.132353
0.015385
0.353846
0.308824
0.382353
0.264706
0.250000
0.441176
0.308824
0.014706
0.088235
0.044118
0.147059
0.102941
0.139535
0.232558
0.200000
0.441860
0.303571
0.279070
0.340000
0.232143
0.357143
0.132075
0.147541
0.459016
0.121951
0.000000
0.068182
0.000000
0.000000
0.292308
0.184615
0.235294
0.112903
0.161765
0.161765
0.308824
0.294118
0.264706
0.176471
0.250000
0.205882
0.161765
0.147059
0.132353
0.058824
0.132353
0.176471
0.426471
0.264706
0.191176
0.426471
0.058824
0.029412
0.029412
0.058824
0.058824
0.000000
0.029412
0.014706
0.029412
0.029412
0.014706
0.000000
0.014706
0.029412
0.000000
0.014706
0.029412
0.029412
0.014706
0.044118
0.073529
0.044118
0.176471
0.117647
0.000000
0.000000
0.000000
0.000000
0.029412
0.000000
0.000000
0.264706
0.264706
0.338235
0.220588
0.426471
0.676471
0.220588
0.338235
0.514706
0.426471
0.279412
0.514706
0.352941
0.147059
0.191176
0.264706
0.176471
0.367647
0.029412
0.073529
0.426471
0.073529
0.147059
0.029412
0.279412
0.000000
0.308824
0.308824
0.323529
0.279412
0.279412
0.147059
0.147059
0.088235
0.176471
0.000000
0.000000
0.191176
0.044118
0.000000
0.014706
0.000000
0.000000
0.088235
0.000000
0.014706
0.000000
0.000000
0.044118
0.000000
0.161765
0.102941
0.411765
0.176471
0.044118
0.514706
0.544118
0.558824
0.411765
0.308824
0.411765
0.308824
0.323529
0.132353
0.191176
0.000000
0.102941
0.426471
0.176471
0.573529
0.544118
0.308824
0.573529
0.426471
0.000000
0.000000
0.000000
0.000000
0.000000
0.049180
0.000000
0.000000
0.000000
0.049180
0.000000
0.000000
0.076923
0.088235
0.061538
0.102941
0.061538
0.000000
0.000000
0.000000
0.000000
0.000000
0.147059
0.088235
0.088235
0.073529
0.117647
0.088235
0.061538
0.073529
0.073529
0.061538
0.061538
0.046154
0.049180
0.049180
0.073529
0.058824
0.058824
0.044118
0.058824
0.058824
0.030769
0.000000
0.000000
0.000000
0.000000
0.000000
0.176471
0.455882
0.147059
0.235294
0.102941
0.411765
0.191176
0.161765
0.455882
0.147059
0.102941
0.088235
0.102941
0.117647
0.102941
0.073529
0.117647
0.058824
0.470588
0.058824
0.117647
0.058824
0.000000
0.000000
0.000000
0.000000
0.000000
0.016393
0.000000
0.000000
0.000000
0.000000
0.000000
0.000000
0.015385
0.029412
0.000000
0.029412
0.000000
0.000000
0.000000
0.000000
0.000000
0.000000
0.073529
0.073529
0.044118
0.088235
0.014706
0.014706
0.029412
0.000000
0.029412
0.029412
0.029412
0.014706
0.044118
0.029412
0.000000
0.000000
0.000000
0.000000
0.000000
0.000000
0.014706
0.147059
0.073529
0.088235
0.073529
0.044118
0.000000
0.000000
0.014706
0.014706
0.014706
0.029412
0.029412
0.058824
0.058824
0.044118
0.058824
0.029412
0.029412
0.058824
0.058824
0.044118
0.029412
0.029412
0.029412
0.014706
0.014706
0.044118
0.029412
0.029412
0.014706
0.044118
0.000000
0.000000
0.000000
0.000000
0.000000
0.000000
0.014706
0.014706
0.000000
0.014706
0.014706
0.029412
0.044118
0.044118
0.000000
0.014706
0.029412
0.044118
0.000000
0.014706
0.029412
0.058824
0.088235
0.044118
0.132353
0.044118
0.000000
0.000000
0.000000
0.000000
0.000000
0.000000
0.000000
0.000000
0.000000
0.000000
0.000000
0.000000
0.000000
0.000000
0.000000
0.000000
0.000000
0.000000
0.000000
0.000000
0.000000
0.000000
0.014706
0.000000
0.000000
0.000000
0.000000
0.000000
0.000000
0.000000
0.000000
0.000000
0.000000
0.000000
0.000000
0.000000
0.000000
0.000000
0.000000
0.000000
0.000000
0.000000
0.000000
0.000000
0.000000
0.000000
0.000000
0.000000
0.000000
0.000000
0.000000
0.000000
0.000000
0.000000
0.000000
0.000000
0.000000
0.000000
0.000000
0.000000
0.000000
0.000000
0.000000
0.000000
0.000000
0.000000
0.000000
0.000000
0.000000
0.000000
0.000000
0.000000
0.000000
0.044118
0.000000
0.102941
0.044118
0.044118
0.000000
0.102941
0.044118
0.000000
0.176471
0.308824
0.176471
0.411765
0.176471
0.000000
0.000000
0.000000
0.044118
0.000000
0.000000
0.000000
0.000000
0.000000
0.000000
0.000000
0.000000
0.000000
0.000000
0.000000
0.000000
0.000000
0.000000
0.000000
0.000000
0.000000
0.000000
0.000000
0.000000
0.000000
0.000000
0.014706
0.000000
0.000000
0.000000
0.000000
0.000000
0.000000
0.000000
0.000000
0.000000
0.000000
0.000000
0.000000
0.000000
0.000000
0.000000
0.029412
0.015385
0.000000
0.000000
0.000000
0.000000
0.000000
0.058824
0.044118
0.058824
0.044118
0.058824
0.058824
0.030769
0.073529
0.058824
0.061538
0.046154
0.061538
0.049180
0.032787
0.088235
0.088235
0.088235
0.073529
0.117647
0.117647
0.061538
0.000000
0.000000
0.000000
0.000000
0.000000
0.058824
0.132353
0.058824
0.102941
0.058824
0.044118
0.058824
0.073529
0.470588
0.088235
0.058824
0.088235
0.058824
0.029412
0.058824
0.029412
0.058824
0.102941
0.455882
0.132353
0.161765
0.176471
0.000000
0.000000
0.000000
0.000000
0.000000
0.049180
0.000000
0.000000
0.000000
0.049180
0.000000
0.000000
0.076923
0.102941
0.092308
0.132353
0.112903
0.000000
0.000000
0.000000
0.000000
0.000000
0.000000
0.000000
0.000000
0.000000
0.000000
0.000000
0.000000
0.000000
0.000000
0.000000
0.049180
0.049180
0.000000
0.000000
0.000000
0.000000
0.000000
0.107692
0.107692
0.132353
0.092308
0.147059
0.000000
0.000000
0.000000
0.000000
0.000000
0.016393
0.049180
0.015385
0.030769
0.044118
0.046154
0.058824
0.073529
0.076923
0.000000
0.029412
0.044118
0.058824
0.014706
0.029412
0.058824
0.102941
0.102941
0.132353
0.088235
0.147059
0.000000
0.000000
0.000000
0.000000
0.000000
0.000000
0.000000
0.000000
0.000000
0.000000
0.000000
0.000000
0.000000
0.000000
0.000000
0.000000
0.000000
0.000000
0.000000
0.000000
0.000000
0.000000
0.117647
0.088235
0.455882
0.058824
0.191176
0.058824
0.500000
0.117647
0.102941
0.147059
0.029412
0.073529
0.058824
0.044118
0.102941
0.029412
0.088235
0.088235
0.029412
0.044118
0.029412
0.029412
0.000000
0.000000
0.000000
0.000000
0.000000
0.000000
0.000000
0.000000
0.000000
0.000000
0.000000
0.000000
0.000000
0.000000
0.000000
0.000000
0.014706
0.000000
0.044118
0.058824
0.014706
0.000000
0.000000
0.000000
0.014706
0.014706
0.058824
0.044118
0.058824
0.029412
0.058824
0.058824
0.029412
0.044118
0.073529
0.058824
0.044118
0.029412
0.058824
0.029412
0.029412
0.014706
0.000000
0.014706
0.000000
0.000000
0.014706
0.029412
0.044118
0.029412
0.058824
0.029412
0.058824
0.117647
0.073529
0.147059
0.073529
0.044118
0.029412
0.073529
0.029412
0.014706
0.029412
0.014706
0.014706
0.014706
0.088235
0.073529
0.058824
0.014706
0.073529
0.058824
0.000000
0.014706
0.000000
0.000000
0.000000
0.000000
0.044118
0.058824
0.102941
0.044118
0.044118
0.014706
0.014706
0.000000
0.014706
0.000000
0.014706
0.029412
0.000000
0.000000
0.000000
0.000000
0.000000
0.029412
0.014706
0.014706
0.000000
0.029412
0.000000
0.000000
0.000000
0.000000
0.000000
0.000000
0.000000
0.000000
0.000000
0.000000
0.032787
0.000000
0.000000
0.000000
0.000000
0.000000
0.000000
0.015385
0.030769
0.029412
0.046154
0.044118
0.000000
0.000000
0.000000
0.000000
0.000000
0.049180
0.049180
0.061538
0.061538
0.073529
0.061538
0.088235
0.088235
0.061538
0.076923
0.088235
0.132353
0.102941
0.147059
0.176471
0.132353
0.058824
0.073529
0.058824
0.088235
0.058824
0.000000
0.000000
0.000000
0.000000
0.000000
0.000000
0.000000
0.000000
0.000000
0.000000
0.049180
0.049180
0.000000
0.000000
0.000000
0.000000
0.000000
0.092308
0.107692
0.132353
0.112903
0.161765
0.058824
0.088235
0.485294
0.088235
0.073529
0.132353
0.455882
0.102941
0.073529
0.205882
0.426471
0.132353
0.176471
0.220588
0.455882
0.235294
0.264706
0.073529
0.073529
0.088235
0.279412
0.073529
0.000000
0.000000
0.000000
0.000000
0.000000
0.000000
0.000000
0.000000
0.000000
0.000000
0.000000
0.000000
0.000000
0.000000
0.000000
0.000000
0.000000
0.000000
0.000000
0.000000
0.000000
0.000000
0.000000
0.000000
0.000000
0.000000
0.000000
0.000000
0.000000
0.000000
0.000000
0.000000
0.000000
0.000000
0.000000
0.000000
0.000000
0.000000
0.000000
0.000000
0.000000
0.000000
0.000000
0.000000
0.000000
0.000000
0.000000
0.000000
0.000000
0.000000
0.000000
0.000000
0.000000
0.000000
0.000000
0.000000
0.000000
0.000000
0.000000
0.000000
0.000000
0.014706
0.000000
0.058824
0.000000
0.000000
0.000000
0.000000
0.014706
0.000000
0.000000
0.000000
0.044118
0.000000
0.102941
0.000000
0.044118
0.102941
0.102941
0.102941
0.176471
0.176471
0.000000
0.000000
0.044118
0.000000
0.102941
0.308824
0.308824
0.426471
0.308824
0.544118
0.000000
0.121951
0.068182
0.279070
0.132075
0.465116
0.360000
0.375000
0.267857
0.285714
0.426230
0.180328
0.209302
0.139535
0.200000
0.046512
0.160714
0.215385
0.323077
0.235294
0.338462
0.264706
0.000000
0.000000
0.000000
0.053571
0.000000
0.000000
0.114754
0.000000
0.015385
0.058824
0.061538
0.073529
0.117647
0.169231
0.000000
0.000000
0.000000
0.014706
0.000000
0.014706
0.058824
0.294118
0.205882
0.367647
0.161765
0.441176
0.000000
0.000000
0.000000
0.000000
0.000000
0.000000
0.000000
0.000000
0.000000
0.000000
0.000000
0.000000
0.000000
0.023256
0.000000
0.000000
0.000000
0.000000
0.000000
0.000000
0.000000
0.000000
0.367647
0.338235
0.411765
0.132353
0.279412
0.117647
0.132353
0.161765
0.191176
0.058824
0.102941
0.250000
0.044118
0.029412
0.014706
0.014706
0.029412
0.161765
0.147059
0.117647
0.044118
0.073529
0.000000
0.000000
0.000000
0.000000
0.000000
0.000000
0.000000
0.000000
0.000000
0.000000
0.000000
0.000000
0.000000
0.000000
0.000000
0.000000
0.029412
0.014706
0.044118
0.029412
0.014706
0.000000
0.000000
0.000000
0.000000
0.014706
0.117647
0.058824
0.073529
0.000000
0.161765
0.102941
0.014706
0.102941
0.014706
0.014706
0.014706
0.014706
0.029412
0.014706
0.176471
0.117647
0.176471
0.058824
0.205882
0.102941
0.088235
0.000000
0.014706
0.014706
0.014706
0.014706
0.147059
0.161765
0.205882
0.176471
0.294118
0.279412
0.235294
0.191176
0.264706
0.308824
0.279412
0.235294
0.323529
0.205882
0.088235
0.117647
0.044118
0.102941
0.000000
0.000000
0.161765
0.205882
0.308824
0.220588
0.338235
0.235294
0.014706
0.014706
0.044118
0.044118
0.058824
0.058824
0.044118
0.014706
0.029412
0.014706
0.029412
0.029412
0.102941
0.088235
0.088235
0.073529
0.044118
0.029412
0.014706
0.029412
0.014706
0.044118
0.000000
0.000000
0.000000
0.000000
0.000000
0.000000
0.000000
0.000000
0.000000
0.000000
0.000000
0.000000
0.000000
0.000000
0.000000
0.000000
0.000000
0.000000
0.000000
0.000000
0.000000
0.029412
0.046512
0.000000
0.053571
0.017857
0.160714
0.131148
0.016393
0.230769
0.107692
0.102941
0.061538
0.132353
0.117647
0.015385
0.338462
0.426471
0.308824
0.382353
0.220588
0.441176
0.220588
0.014706
0.044118
0.000000
0.132353
0.102941
0.139535
0.209302
0.200000
0.465116
0.285714
0.279070
0.360000
0.267857
0.357143
0.132075
0.180328
0.426230
0.121951
0.000000
0.068182
0.276923
0.200000
0.205882
0.161765
0.264706
0.294118
0.264706
0.161765
0.205882
0.191176
0.147059
0.147059
0.117647
0.073529
0.132353
0.205882
0.176471
0.455882
0.073529
0.044118
0.029412
0.029412
0.029412
0.014706
0.000000
0.000000
0.029412
0.044118
0.044118
0.000000
0.044118
0.044118
0.014706
0.029412
0.029412
0.044118
0.161765
0.147059
0.014706
0.000000
0.000000
0.058824
0.000000
0.235294
0.235294
0.279412
0.220588
0.441176
0.411765
0.220588
0.323529
0.441176
0.367647
0.323529
0.411765
0.382353
0.147059
0.220588
0.264706
0.147059
0.294118
0.044118
0.058824
0.367647
0.088235
0.176471
0.058824
0.338235
0.029412
0.338235
0.352941
0.602941
0.235294
0.264706
0.147059
0.176471
0.073529
0.161765
0.000000
0.014706
0.191176
0.058824
0.014706
0.000000
0.102941
0.029412
0.029412
0.088235
0.264706
0.161765
0.485294
0.294118
0.426471
0.544118
0.426471
0.529412
0.191176
0.308824
0.397059
0.220588
0.088235
0.132353
0.558824
0.411765
0.558824
VECTORS displacements double 
-0.001995 0.000000 0.000000 
0.001995 0.000000 0.000000 
0.001995 0.000000 0.000000 
-0.001995 0.000000 0.000000 
-0.001995 0.000000 0.000000 
-0.001995 0.000000 0.000000 
-0.001995 0.000000 0.000000 
-0.001995 0.000000 0.000000 
0.003291 0.004824 -0.000100 
-0.000672 0.002836 0.000033 
-0.000574 0.002601 0.000077 
-0.000558 0.002346 0.000014 
-0.000531 0.002253 0.000140 
-0.000540 0.002162 0.000149 
-0.000524 0.002195 0.000354 
-0.000454 0.002070 -0.000019 
-0.000420 0.002141 0.000089 
-0.000403 0.002188 0.000045 
-0.000360 0.002285 -0.000092 
-0.000356 0.002324 -0.000276 
-0.000344 0.002431 -0.000115 
-0.000327 0.002494 0.000026 
-0.000301 0.002611 0.000090 
-0.000296 0.002690 0.000137 
-0.000280 0.002787 0.000253 
-0.000303 0.002846 0.000112 
-0.000260 0.002943 0.000075 
-0.000237 0.003048 -0.000035 
-0.000155 0.003287 0.000080 
-0.000072 0.003695 0.000203 