# vtk DataFile Version 2.0
Solution time step = 499 
ASCII

DATASET UNSTRUCTURED_GRID
POINTS 2113 double
0.000000 0.000000 0.000000 
1.000000 0.000000 0.000000 
1.000000 1.000000 0.000000 
0.000000 1.000000 0.000000 
0.031250 0.000000 0.000000 
0.062500 0.000000 0.000000 
0.093750 0.000000 0.000000 
0.125000 0.000000 0.000000 
0.156250 0.000000 0.000000 
0.187500 0.000000 0.000000 
0.218750 0.000000 0.000000 
0.250000 0.000000 0.000000 
0.281250 0.000000 0.000000 
0.312500 0.000000 0.000000 
0.343750 0.000000 0.000000 
0.375000 0.000000 0.000000 
0.406250 0.000000 0.000000 
0.437500 0.000000 0.000000 
0.468750 0.000000 0.000000 
0.500000 0.000000 0.000000 
0.531250 0.000000 0.000000 
0.562500 0.000000 0.000000 
0.593750 0.000000 0.000000 
0.625000 0.000000 0.000000 
0.656250 0.000000 0.000000 
0.687500 0.000000 0.000000 
0.718750 0.000000 0.000000 
0.750000 0.000000 0.000000 
0.781250 0.000000 0.000000 
0.812500 0.000000 0.000000 
0.843750 0.000000 0.000000 
0.875000 0.000000 0.000000 
0.906250 0.000000 0.000000 
0.937500 0.000000 0.000000 
0.968750 0.000000 0.000000 
1.000000 0.031250 0.000000 
1.000000 0.062500 0.000000 
1.000000 0.093750 0.000000 
1.000000 0.125000 0.000000 
1.000000 0.156250 0.000000 
1.000000 0.187500 0.000000 
1.000000 0.218750 0.000000 
1.000000 0.250000 0.000000 
1.000000 0.281250 0.000000 
1.000000 0.312500 0.000000 
1.000000 0.343750 0.000000 
1.000000 0.375000 0.000000 
1.000000 0.406250 0.000000 
1.000000 0.437500 0.000000 
1.000000 0.468750 0.000000 
1.000000 0.500000 0.000000 
1.000000 0.531250 0.000000 
1.000000 0.562500 0.000000 
1.000000 0.593750 0.000000 
1.000000 0.625000 0.000000 
1.000000 0.656250 0.000000 
1.000000 0.687500 0.000000 
1.000000 0.718750 0.000000 
1.000000 0.750000 0.000000 
1.000000 0.781250 0.000000 
1.000000 0.812500 0.000000 
1.000000 0.843750 0.000000 
1.000000 0.875000 0.000000 
1.000000 0.906250 0.000000 
1.000000 0.937500 0.000000 
1.000000 0.968750 0.000000 
0.968750 1.000000 0.000000 
0.937500 1.000000 0.000000 
0.906250 1.000000 0.000000 
0.875000 1.000000 0.000000 
0.843750 1.000000 0.000000 
0.812500 1.000000 0.000000 
0.781250 1.000000 0.000000 
0.750000 1.000000 0.000000 
0.718750 1.000000 0.000000 
0.687500 1.000000 0.000000 
0.656250 1.000000 0.000000 
0.625000 1.000000 0.000000 
0.593750 1.000000 0.000000 
0.562500 1.000000 0.000000 
0.531250 1.000000 0.000000 
0.500000 1.000000 0.000000 
0.468750 1.000000 0.000000 
0.437500 1.000000 0.000000 
0.406250 1.000000 0.000000 
0.375000 1.000000 0.000000 
0.343750 1.000000 0.000000 
0.312500 1.000000 0.000000 
0.281250 1.000000 0.000000 
0.250000 1.000000 0.000000 
0.218750 1.000000 0.000000 
0.187500 1.000000 0.000000 
0.156250 1.000000 0.000000 
0.125000 1.000000 0.000000 
0.093750 1.000000 0.000000 
0.062500 1.000000 0.000000 
0.031250 1.000000 0.000000 
0.000000 0.968750 0.000000 
0.000000 0.937500 0.000000 
0.000000 0.906250 0.000000 
0.000000 0.875000 0.000000 
0.000000 0.843750 0.000000 
0.000000 0.812500 0.000000 
0.000000 0.781250 0.000000 
0.000000 0.750000 0.000000 
0.000000 0.718750 0.000000 
0.000000 0.687500 0.000000 
0.000000 0.656250 0.000000 
0.000000 0.625000 0.000000 
0.000000 0.593750 0.000000 
0.000000 0.562500 0.000000 
0.000000 0.531250 0.000000 
0.000000 0.500000 0.000000 
0.000000 0.468750 0.000000 
0.000000 0.437500 0.000000 
0.000000 0.406250 0.000000 
0.000000 0.375000 0.000000 
0.000000 0.343750 0.000000 
0.000000 0.312500 0.000000 
0.000000 0.281250 0.000000 
0.000000 0.250000 0.000000 
0.000000 0.218750 0.000000 
0.000000 0.187500 0.000000 
0.000000 0.156250 0.000000 
0.000000 0.125000 0.000000 
0.000000 0.093750 0.000000 
0.000000 0.062500 0.000000 
0.000000 0.031250 0.000000 
0.500000 0.500000 0.000000 
0.750000 0.250000 0.000000 
0.250000 0.250000 0.000000 
0.250000 0.750000 0.000000 
0.750000 0.750000 0.000000 
0.375000 0.125000 0.000000 
0.125000 0.125000 0.000000 
0.625000 0.125000 0.000000 
0.500000 0.250000 0.000000 
0.875000 0.125000 0.000000 
0.625000 0.375000 0.000000 
0.375000 0.375000 0.000000 
0.125000 0.375000 0.000000 
0.250000 0.500000 0.000000 
0.125000 0.625000 0.000000 
0.375000 0.625000 0.000000 
0.125000 0.875000 0.000000 
0.875000 0.375000 0.000000 
0.875000 0.625000 0.000000 
0.750000 0.500000 0.000000 
0.875000 0.875000 0.000000 
0.625000 0.625000 0.000000 
0.625000 0.875000 0.000000 
0.375000 0.875000 0.000000 
0.500000 0.750000 0.000000 
0.187500 0.062500 0.000000 
0.062500 0.062500 0.000000 
0.312500 0.062500 0.000000 
0.250000 0.125000 0.000000 
0.437500 0.062500 0.000000 
0.312500 0.187500 0.000000 
0.187500 0.187500 0.000000 
0.562500 0.062500 0.000000 
0.500000 0.125000 0.000000 
0.562500 0.187500 0.000000 
0.437500 0.187500 0.000000 
0.687500 0.187500 0.000000 
0.625000 0.250000 0.000000 
0.375000 0.250000 0.000000 
0.687500 0.062500 0.000000 
0.812500 0.062500 0.000000 
0.750000 0.125000 0.000000 
0.937500 0.062500 0.000000 
0.812500 0.187500 0.000000 
0.437500 0.312500 0.000000 
0.312500 0.312500 0.000000 
0.562500 0.312500 0.000000 
0.500000 0.375000 0.000000 
0.687500 0.312500 0.000000 
0.562500 0.437500 0.000000 
0.437500 0.437500 0.000000 
0.062500 0.187500 0.000000 
0.125000 0.250000 0.000000 
0.062500 0.312500 0.000000 
0.187500 0.312500 0.000000 
0.062500 0.437500 0.000000 
0.250000 0.375000 0.000000 
0.187500 0.437500 0.000000 
0.187500 0.562500 0.000000 
0.125000 0.500000 0.000000 
0.250000 0.625000 0.000000 
0.187500 0.687500 0.000000 
0.062500 0.562500 0.000000 
0.312500 0.437500 0.000000 
0.375000 0.500000 0.000000 
0.312500 0.562500 0.000000 
0.437500 0.562500 0.000000 
0.312500 0.687500 0.000000 
0.062500 0.687500 0.000000 
0.125000 0.750000 0.000000 
0.062500 0.812500 0.000000 
0.187500 0.812500 0.000000 
0.062500 0.937500 0.000000 
0.937500 0.187500 0.000000 
0.937500 0.312500 0.000000 
0.875000 0.250000 0.000000 
0.937500 0.437500 0.000000 
0.812500 0.312500 0.000000 
0.937500 0.562500 0.000000 
0.875000 0.500000 0.000000 
0.812500 0.562500 0.000000 
0.812500 0.437500 0.000000 
0.812500 0.687500 0.000000 
0.750000 0.625000 0.000000 
0.750000 0.375000 0.000000 
0.937500 0.687500 0.000000 
0.937500 0.812500 0.000000 
0.875000 0.750000 0.000000 
0.937500 0.937500 0.000000 
0.812500 0.812500 0.000000 
0.687500 0.437500 0.000000 
0.687500 0.562500 0.000000 
0.625000 0.500000 0.000000 
0.687500 0.687500 0.000000 
0.562500 0.562500 0.000000 
0.812500 0.937500 0.000000 
0.687500 0.937500 0.000000 
0.750000 0.875000 0.000000 
0.562500 0.937500 0.000000 
0.687500 0.812500 0.000000 
0.437500 0.937500 0.000000 
0.500000 0.875000 0.000000 
0.437500 0.812500 0.000000 
0.562500 0.812500 0.000000 
0.312500 0.812500 0.000000 
0.375000 0.750000 0.000000 
0.625000 0.750000 0.000000 
0.312500 0.937500 0.000000 
0.187500 0.937500 0.000000 
0.250000 0.875000 0.000000 
0.562500 0.687500 0.000000 
0.437500 0.687500 0.000000 
0.500000 0.625000 0.000000 
0.093750 0.031250 0.000000 
0.031250 0.031250 0.000000 
0.156250 0.031250 0.000000 
0.125000 0.062500 0.000000 
0.218750 0.031250 0.000000 
0.156250 0.093750 0.000000 
0.093750 0.093750 0.000000 
0.281250 0.031250 0.000000 
0.250000 0.062500 0.000000 
0.281250 0.093750 0.000000 
0.218750 0.093750 0.000000 
0.343750 0.093750 0.000000 
0.312500 0.125000 0.000000 
0.187500 0.125000 0.000000 
0.343750 0.031250 0.000000 
0.406250 0.031250 0.000000 
0.375000 0.062500 0.000000 
0.468750 0.031250 0.000000 
0.406250 0.093750 0.000000 
0.218750 0.156250 0.000000 
0.156250 0.156250 0.000000 
0.281250 0.156250 0.000000 
0.250000 0.187500 0.000000 
0.343750 0.156250 0.000000 
0.281250 0.218750 0.000000 
0.218750 0.218750 0.000000 
0.531250 0.031250 0.000000 
0.500000 0.062500 0.000000 
0.531250 0.093750 0.000000 
0.468750 0.093750 0.000000 
0.593750 0.093750 0.000000 
0.562500 0.125000 0.000000 
0.437500 0.125000 0.000000 
0.593750 0.156250 0.000000 
0.531250 0.156250 0.000000 
0.500000 0.187500 0.000000 
0.468750 0.156250 0.000000 
0.531250 0.218750 0.000000 
0.468750 0.218750 0.000000 
0.406250 0.156250 0.000000 
0.656250 0.156250 0.000000 
0.625000 0.187500 0.000000 
0.656250 0.218750 0.000000 
0.593750 0.218750 0.000000 
0.718750 0.218750 0.000000 
0.687500 0.250000 0.000000 
0.562500 0.250000 0.000000 
0.375000 0.187500 0.000000 
0.406250 0.218750 0.000000 
0.343750 0.218750 0.000000 
0.437500 0.250000 0.000000 
0.312500 0.250000 0.000000 
0.593750 0.031250 0.000000 
0.656250 0.031250 0.000000 
0.625000 0.062500 0.000000 
0.718750 0.031250 0.000000 
0.656250 0.093750 0.000000 
0.781250 0.031250 0.000000 
0.750000 0.062500 0.000000 
0.781250 0.093750 0.000000 
0.718750 0.093750 0.000000 
0.843750 0.093750 0.000000 
0.812500 0.125000 0.000000 
0.687500 0.125000 0.000000 
0.843750 0.031250 0.000000 
0.906250 0.031250 0.000000 
0.875000 0.062500 0.000000 
0.968750 0.031250 0.000000 
0.906250 0.093750 0.000000 
0.718750 0.156250 0.000000 
0.781250 0.156250 0.000000 
0.750000 0.187500 0.000000 
0.843750 0.156250 0.000000 
0.781250 0.218750 0.000000 
0.343750 0.281250 0.000000 
0.281250 0.281250 0.000000 
0.406250 0.281250 0.000000 
0.375000 0.312500 0.000000 
0.468750 0.281250 0.000000 
0.406250 0.343750 0.000000 
0.343750 0.343750 0.000000 
0.531250 0.281250 0.000000 
0.500000 0.312500 0.000000 
0.531250 0.343750 0.000000 
0.468750 0.343750 0.000000 
0.593750 0.343750 0.000000 
0.562500 0.375000 0.000000 
0.437500 0.375000 0.000000 
0.593750 0.281250 0.000000 
0.656250 0.281250 0.000000 
0.625000 0.312500 0.000000 
0.718750 0.281250 0.000000 
0.656250 0.343750 0.000000 
0.468750 0.406250 0.000000 
0.406250 0.406250 0.000000 
0.531250 0.406250 0.000000 
0.500000 0.437500 0.000000 
0.593750 0.406250 0.000000 
0.531250 0.468750 0.000000 
0.468750 0.468750 0.000000 
0.031250 0.093750 0.000000 
0.062500 0.125000 0.000000 
0.031250 0.156250 0.000000 
0.093750 0.156250 0.000000 
0.031250 0.218750 0.000000 
0.125000 0.187500 0.000000 
0.093750 0.218750 0.000000 
0.093750 0.281250 0.000000 
0.062500 0.250000 0.000000 
0.125000 0.312500 0.000000 
0.093750 0.343750 0.000000 
0.031250 0.281250 0.000000 
[...]
POINT_DATA 2113
SCALARS damage double
LOOKUP_TABLE default
0.000000
0.000000
0.000000
0.000000
0.000000
0.060606
0.189189
0.378378
0.351351
0.216216
0.108108
0.027027
0.000000
0.000000
0.000000
0.000000
0.000000
0.000000
0.000000
0.000000
0.000000
0.000000
0.000000
0.000000
0.000000
0.000000
0.000000
0.000000
0.081081
0.135135
0.351351
0.378378
0.189189
0.060606
0.000000
0.000000
0.000000
0.000000
0.000000
0.000000
0.000000
0.000000
0.000000
0.000000
0.000000
0.000000
0.000000
0.000000
0.000000
0.000000
0.000000
0.000000
0.000000
0.000000
0.000000
0.000000
0.000000
0.000000
0.000000
0.000000
0.000000
0.000000
0.000000
0.000000
0.000000
0.000000
0.000000
0.060606
0.189189
0.378378
0.378378
0.189189
0.108108
0.000000
0.000000
0.000000
0.000000
0.000000
0.000000
0.000000
0.000000
0.000000
0.000000
0.000000
0.000000
0.000000
0.000000
0.000000
0.000000
0.000000
0.108108
0.189189
0.351351
0.378378
0.189189
0.060606
0.000000
0.000000
0.000000
0.000000
0.000000
0.000000
0.000000
0.000000
0.000000
0.000000
0.000000
0.000000
0.000000
0.000000
0.000000
0.000000
0.000000
0.000000
0.000000
0.000000
0.000000
0.000000
0.000000
0.000000
0.000000
0.000000
0.000000
0.000000
0.000000
0.000000
0.000000
0.000000
0.588235
0.088235
0.044118
0.058824
0.102941
0.044118
0.235294
0.000000
0.205882
0.220588
0.000000
0.000000
0.058824
0.000000
0.058824
0.014706
0.220588
0.058824
0.058824
0.000000
0.235294
0.000000
0.014706
0.044118
0.338235
0.262295
0.055556
0.000000
0.117647
0.000000
0.264706
0.441176
0.000000
0.000000
0.058824
0.088235
0.014706
0.029412
0.308824
0.000000
0.229508
0.088235
0.055556
0.426471
0.279412
0.000000
0.073529
0.573529
0.000000
0.176471
0.102941
0.049180
0.088235
0.032787
0.044118
0.000000
0.014706
0.058824
0.044118
0.014706
0.000000
0.058824
0.000000
0.000000
0.000000
0.000000
0.102941
0.000000
0.049180
0.102941
0.049180
0.426471
0.055556
0.049180
0.049180
0.117647
0.000000
0.147059
0.000000
0.014706
0.058824
0.044118
0.058824
0.014706
0.000000
0.032787
0.049180
0.102941
0.055556
0.411765
0.000000
0.000000
0.000000
0.000000
0.176471
0.327869
0.000000
0.102941
0.000000
0.014706
0.000000
0.014706
0.294118
0.058824
0.088235
0.058824
0.044118
0.000000
0.213115
0.102941
0.132353
0.220588
0.544118
0.200000
0.000000
0.420000
0.311475
0.120000
0.455882
0.176471
0.000000
0.000000
0.044118
0.161765
0.000000
0.044118
0.382353
0.000000
0.000000
0.000000
0.000000
0.000000
0.308824
0.455882
0.338235
0.147059
0.161765
0.117647
0.058824
0.000000
0.000000
0.000000
0.000000
0.000000
0.000000
0.000000
0.029412
0.014706
0.029412
0.014706
0.058824
0.117647
0.058824
0.014706
0.058824
0.044118
0.044118
0.102941
0.014706
0.088235
0.264706
0.250000
0.264706
0.235294
0.117647
0.000000
0.000000
0.000000
0.000000
0.000000
0.100000
0.000000
0.147059
0.029412
0.455882
0.323529
0.014706
0.400000
0.200000
0.295082
0.000000
0.161765
0.102941
0.250000
0.176471
0.441176
0.264706
0.117647
0.000000
0.279412
0.117647
0.308824
0.132353
0.000000
0.132353
0.279412
0.264706
0.411765
0.014706
0.132353
0.176471
0.044118
0.014706
0.044118
0.029412
0.000000
0.338235
0.000000
0.382353
0.573529
0.044118
0.426471
0.308824
0.000000
0.049180
0.000000
0.102941
0.000000
0.132353
0.073529
0.058824
0.049180
0.058824
0.044118
0.000000
0.455882
0.073529
0.455882
0.029412
0.117647
0.000000
0.000000
0.000000
0.000000
0.000000
0.014706
0.014706
0.014706
0.044118
0.000000
0.000000
0.044118
0.000000
0.058824
0.044118
0.044118
0.058824
0.029412
0.014706
0.000000
0.014706
0.014706
0.029412
0.000000
0.058824
0.500000
0.000000
0.000000
0.000000
0.014706
0.000000
0.000000
0.000000
0.000000
0.000000
0.000000
0.000000
0.000000
0.000000
0.000000
0.000000
0.000000
0.000000
0.000000
0.102941
0.000000
0.308824
0.000000
0.000000
0.000000
0.000000
0.000000
0.014706
0.000000
0.016393
0.000000
0.044118
0.000000
0.073529
0.073529
0.073529
0.049180
0.161765
0.102941
0.000000
0.485294
0.132353
0.455882
0.088235
0.455882
0.000000
0.049180
0.000000
0.176471
0.000000
0.000000
0.000000
0.049180
0.000000
0.102941
0.000000
0.049180
0.073529
0.073529
0.044118
0.073529
0.161765
0.000000
0.000000
0.016393
0.000000
0.014706
0.455882
0.470588
0.441176
0.500000
0.088235
0.000000
0.000000
0.000000
0.000000
0.000000
0.014706
0.029412
0.058824
0.044118
0.058824
0.044118
0.000000
0.000000
0.073529
0.147059
0.029412
0.029412
0.029412
0.102941
0.073529
0.000000
0.029412
0.014706
0.044118
0.000000
0.058824
0.000000
0.000000
0.000000
0.000000
0.044118
0.000000
0.049180
0.088235
0.058824
0.117647
0.205882
0.058824
0.000000
0.000000
0.049180
0.000000
0.161765
0.485294
0.455882
0.441176
0.455882
0.250000
0.000000
0.000000
0.000000
0.000000
0.000000
0.000000
0.000000
0.000000
0.000000
0.000000
0.000000
0.000000
0.000000
0.000000
0.000000
0.029412
0.000000
0.044118
0.044118
0.176471
0.044118
0.426471
0.200000
0.400000
0.311475
0.120000
0.455882
0.000000
0.049180
0.058824
0.176471
0.000000
0.029412
0.352941
0.000000
0.000000
0.000000
0.000000
0.000000
0.250000
0.132353
0.161765
0.058824
0.117647
0.000000
0.000000
0.000000
0.000000
0.000000
0.044118
0.014706
0.191176
0.132353
0.161765
0.044118
0.367647
0.176471
0.044118
0.191176
0.176471
0.073529
0.250000
0.044118
0.000000
0.323529
0.058824
0.058824
0.044118
0.088235
0.014706
0.000000
0.000000
0.000000
0.000000
0.000000
0.100000
0.016393
0.147059
0.044118
0.441176
0.470588
0.014706
0.380000
0.200000
0.311475
0.161765
0.205882
0.147059
0.014706
0.044118
0.014706
0.279412
0.044118
0.455882
0.426471
0.382353
0.323529
0.073529
0.176471
0.132353
0.161765
0.014706
0.014706
0.397059
0.338235
0.573529
0.000000
0.000000
0.121951
0.068182
0.279070
0.132075
0.000000
0.465116
0.380000
0.392857
0.250000
0.285714
0.442623
0.163934
0.232558
0.139535
0.200000
0.069767
0.178571
0.230769
0.112903
0.338462
0.264706
0.338462
0.279412
0.191176
0.000000
0.000000
0.000000
0.053571
0.000000
0.000000
0.131148
0.000000
0.030769
0.073529
0.092308
0.088235
0.117647
0.215385
0.000000
0.000000
0.000000
0.029412
0.014706
0.058824
0.088235
0.426471
0.205882
0.323529
0.191176
0.441176
0.000000
0.000000
0.000000
0.000000
0.000000
0.000000
0.000000
0.000000
0.000000
0.000000
0.000000
0.000000
0.000000
0.000000
0.000000
0.000000
0.000000
0.000000
0.000000
0.000000
0.000000
0.000000
0.367647
0.235294
0.323529
0.382353
0.176471
0.205882
0.176471
0.161765
0.235294
0.250000
0.220588
0.279412
0.220588
0.117647
0.117647
0.102941
0.191176
0.088235
0.235294
0.073529
0.088235
0.132353
0.088235
0.191176
0.058824
0.044118
0.000000
0.000000
0.000000
0.000000
0.000000
0.000000
0.000000
0.000000
0.000000
0.000000
0.000000
0.000000
0.000000
0.000000
0.000000
0.000000
0.000000
0.000000
0.000000
0.000000
0.000000
0.000000
0.000000
0.000000
0.000000
0.000000
0.029412
0.014706
0.014706
0.000000
0.044118
0.014706
0.000000
0.014706
0.014706
0.044118
0.014706
0.014706
0.029412
0.014706
0.102941
0.014706
0.117647
0.029412
0.102941
0.132353
0.088235
0.014706
0.029412
0.014706
0.073529
0.073529
0.014706
0.014706
0.014706
0.029412
0.014706
0.044118
0.044118
0.014706
0.029412
0.058824
0.044118
0.029412
0.014706
0.073529
0.058824
0.014706
0.073529
0.029412
0.088235
0.058824
0.044118
0.044118
0.088235
0.132353
0.073529
0.117647
0.117647
0.132353
0.205882
0.132353
0.308824
0.176471
0.250000
0.308824
0.323529
0.308824
0.264706
0.279412
0.132353
0.205882
0.250000
0.205882
0.323529
0.205882
0.205882
0.102941
0.205882
0.044118
0.000000
0.000000
0.000000
0.000000
0.000000
0.000000
0.000000
0.000000
0.000000
0.000000
0.000000
0.000000
0.000000
0.000000
0.000000
0.000000
0.000000
0.000000
0.000000
0.000000
0.000000
0.000000
0.046512
0.000000
0.053571
0.000000
0.160714
0.114754
0.000000
0.184615
0.061538
0.058824
0.030769
0.117647
0.088235
0.000000
0.323077
0.264706
0.352941
0.220588
0.294118
0.441176
0.176471
0.000000
0.029412
0.014706
0.058824
0.014706
0.139535
0.209302
0.200000
0.465116
0.285714
0.279070
0.360000
0.250000
0.375000
0.132075
0.163934
0.459016
0.121951
0.000000
0.068182
0.000000
0.000000
0.307692
0.215385
0.220588
0.112903
0.176471
0.000000
0.029412
0.014706
0.132353
0.073529
0.147059
0.132353
0.191176
0.161765
0.294118
0.279412
0.132353
0.367647
0.323529
0.411765
0.250000
0.250000
0.176471
0.235294
0.176471
0.264706
0.088235
0.073529
0.014706
0.161765
0.044118
0.220588
0.044118
0.000000
0.294118
0.205882
0.191176
0.102941
0.264706
0.220588
0.044118
0.308824
0.294118
0.352941
0.250000
0.352941
0.044118
0.000000
0.102941
0.044118
0.235294
0.058824
0.000000
0.191176
0.279412
0.220588
0.279412
0.132353
0.191176
0.352941
0.161765
0.352941
0.382353
0.367647
0.352941
0.411765
0.338235
0.073529
0.102941
0.058824
0.191176
0.000000
0.029412
0.308824
0.264706
0.308824
0.161765
0.367647
0.058824
0.132353
0.102941
0.073529
0.014706
0.073529
0.029412
0.014706
0.029412
0.044118
0.000000
0.000000
0.058824
0.029412
0.014706
0.029412
0.044118
0.000000
0.000000
0.000000
0.000000
0.000000
0.000000
0.088235
0.000000
0.220588
0.132353
0.441176
0.191176
0.044118
0.485294
0.558824
0.529412
0.426471
0.294118
0.411765
0.338235
0.250000
0.088235
0.161765
0.000000
0.102941
0.426471
0.176471
0.558824
0.588235
0.308824
0.558824
0.426471
0.000000
0.000000
0.000000
0.000000
0.000000
0.049180
0.000000
0.000000
0.000000
0.049180
0.000000
0.000000
0.107692
0.147059
0.092308
0.161765
0.076923
0.000000
0.000000
0.000000
0.000000
0.000000
0.176471
0.117647
0.102941
0.088235
0.117647
0.088235
0.061538
0.073529
0.073529
0.061538
0.061538
0.046154
0.049180
0.049180
0.073529
0.058824
0.058824
0.044118
0.058824
0.044118
0.030769
0.000000
0.000000
0.000000
0.000000
0.000000
0.191176
0.455882
0.117647
0.102941
0.102941
0.294118
0.088235
0.058824
0.455882
0.058824
0.058824
0.088235
0.058824
0.044118
0.058824
0.014706
0.044118
0.073529
0.470588
0.058824
0.073529
0.058824
0.000000
0.000000
0.000000
0.000000
0.000000
0.016393
0.000000
0.000000
0.000000
0.000000
0.000000
0.000000
0.015385
0.014706
0.000000
0.029412
0.000000
0.000000
0.000000
0.000000
0.000000
0.000000
0.014706
0.000000
0.014706
0.044118
0.014706
0.014706
0.029412
0.044118
0.029412
0.044118
0.029412
0.029412
0.058824
0.029412
0.000000
0.014706
0.014706
0.029412
0.000000
0.000000
0.014706
0.220588
0.102941
0.073529
0.132353
0.044118
0.000000
0.000000
0.014706
0.014706
0.014706
0.044118
0.058824
0.117647
0.058824
0.044118
0.058824
0.029412
0.029412
0.117647
0.088235
0.044118
0.044118
0.029412
0.058824
0.044118
0.014706
0.044118
0.029412
0.029412
0.014706
0.044118
0.000000
0.014706
0.000000
0.014706
0.000000
0.014706
0.029412
0.014706
0.014706
0.029412
0.029412
0.058824
0.044118
0.058824
0.000000
0.014706
0.014706
0.000000
0.044118
0.044118
0.044118
0.117647
0.102941
0.088235
0.044118
0.058824
0.000000
0.000000
0.000000
0.000000
0.000000
0.000000
0.000000
0.000000
0.000000
0.000000
0.000000
0.000000
0.000000
0.014706
0.000000
0.029412
0.000000
0.000000
0.000000
0.000000
0.000000
0.000000
0.000000
0.000000
0.000000
0.000000
0.014706
0.000000
0.000000
0.000000
0.000000
0.000000
0.000000
0.000000
0.000000
0.000000
0.000000
0.000000
0.000000
0.000000
0.000000
0.000000
0.000000
0.000000
0.000000
0.000000
0.000000
0.000000
0.000000
0.000000
0.000000
0.000000
0.000000
0.000000
0.000000
0.000000
0.000000
0.000000
0.000000
0.000000
0.000000
0.000000
0.000000
0.000000
0.000000
0.000000
0.000000
0.000000
0.000000
0.000000
0.000000
0.000000
0.000000
0.044118
0.000000
0.102941
0.044118
0.044118
0.000000
0.102941
0.044118
0.000000
0.176471
0.308824
0.176471
0.426471
0.176471
0.000000
0.000000
0.000000
0.044118
0.000000
0.000000
0.000000
0.000000
0.000000
0.000000
0.000000
0.000000
0.000000
0.000000
0.000000
0.000000
0.000000
0.000000
0.000000
0.000000
0.000000
0.000000
0.000000
0.000000
0.014706
0.014706
0.029412
0.000000
0.000000
0.000000
0.000000
0.000000
0.000000
0.000000
0.000000
0.000000
0.032787
0.000000
0.000000
0.015385
0.029412
0.030769
0.044118
0.046154
0.000000
0.000000
0.000000
0.000000
0.000000
0.058824
0.058824
0.073529
0.058824
0.088235
0.088235
0.061538
0.088235
0.073529
0.061538
0.061538
0.061538
0.049180
0.049180
0.117647
0.102941
0.117647
0.088235
0.176471
0.147059
0.076923
0.000000
0.000000
0.000000
0.000000
0.000000
0.058824
0.500000
0.088235
0.058824
0.102941
0.073529
0.058824
0.088235
0.455882
0.382353
0.176471
0.102941
0.073529
0.058824
0.058824
0.058824
0.102941
0.132353
0.455882
0.205882
0.220588
0.250000
0.000000
0.000000
0.000000
0.000000
0.000000
0.049180
0.000000
0.000000
0.000000
0.049180
0.000000
0.000000
0.092308
0.147059
0.107692
0.191176
0.112903
0.000000
0.000000
0.000000
0.000000
0.000000
0.000000
0.000000
0.000000
0.000000
0.000000
0.000000
0.000000
0.000000
0.000000
0.000000
0.049180
0.049180
0.000000
0.000000
0.000000
0.000000
0.000000
0.107692
0.092308
0.132353
0.076923
0.161765
0.000000
0.000000
0.000000
0.000000
0.000000
0.049180
0.049180
0.061538
0.061538
0.073529
0.061538
0.088235
0.088235
0.061538
0.046154
0.058824
0.058824
0.073529
0.044118
0.058824
0.088235
0.088235
0.088235
0.117647
0.147059
0.191176
0.000000
0.000000
0.000000
0.000000
0.000000
0.000000
0.000000
0.000000
0.000000
0.000000
0.000000
0.032787
0.000000
0.000000
0.000000
0.000000
0.000000
0.030769
0.015385
0.029412
0.000000
0.044118
0.220588
0.191176
0.455882
0.132353
0.191176
0.088235
0.455882
0.102941
0.102941
0.088235
0.411765
0.441176
0.088235
0.058824
0.500000
0.058824
0.102941
0.117647
0.073529
0.088235
0.088235
0.073529
0.000000
0.000000
0.000000
0.000000
0.000000
0.000000
0.000000
0.000000
0.000000
0.000000
0.000000
0.000000
0.000000
0.000000
0.000000
0.000000
0.000000
0.000000
0.029412
0.044118
0.014706
0.000000
0.000000
0.014706
0.014706
0.058824
0.044118
0.029412
0.044118
0.029412
0.088235
0.088235
0.029412
0.058824
0.073529
0.073529
0.044118
0.058824
0.088235
0.029412
0.014706
0.014706
0.000000
0.014706
0.000000
0.000000
0.014706
0.029412
0.058824
0.044118
0.088235
0.058824
0.058824
0.102941
0.411765
0.117647
0.205882
0.044118
0.058824
0.044118
0.029412
0.029412
0.044118
0.029412
0.029412
0.029412
0.117647
0.088235
0.102941
0.058824
0.117647
0.073529
0.044118
0.000000
0.014706
0.000000
0.014706
0.000000
0.117647
0.088235
0.132353
0.044118
0.044118
0.029412
0.029412
0.029412
0.029412
0.000000
0.014706
0.088235
0.000000
0.000000
0.000000
0.000000
0.000000
0.102941
0.073529
0.073529
0.014706
0.102941
0.000000
0.000000
0.000000
0.000000
0.000000
0.000000
0.000000
0.000000
0.000000
0.000000
0.016393
0.000000
0.000000
0.000000
0.000000
0.000000
0.000000
0.000000
0.015385
0.014706
0.030769
0.044118
0.000000
0.000000
0.000000
0.000000
0.000000
0.049180
0.049180
0.076923
0.061538
0.073529
0.061538
0.102941
0.073529
0.046154
0.092308
0.102941
0.132353
0.132353
0.176471
0.191176
0.176471
0.044118
0.058824
0.058824
0.073529
0.058824
0.000000
0.000000
0.000000
0.000000
0.000000
0.000000
0.000000
0.000000
0.000000
0.000000
0.049180
0.049180
0.000000
0.000000
0.000000
0.000000
0.000000
0.107692
0.107692
0.147059
0.112903
0.205882
0.058824
0.073529
0.500000
0.102941
0.102941
0.132353
0.470588
0.176471
0.073529
0.235294
0.470588
0.397059
0.205882
0.235294
0.455882
0.250000
0.352941
0.117647
0.205882
0.088235
0.279412
0.102941
0.029412
0.014706
0.014706
0.000000
0.000000
0.000000
0.000000
0.000000
0.000000
0.000000
0.000000
0.000000
0.000000
0.000000
0.000000
0.000000
0.000000
0.000000
0.000000
0.000000
0.000000
0.000000
0.000000
0.000000
0.000000
0.000000
0.000000
0.000000
0.000000
0.000000
0.000000
0.000000
0.000000
0.000000
0.000000
0.000000
0.000000
0.000000
0.000000
0.000000
0.000000
0.000000
0.000000
0.000000
0.000000
0.000000
0.000000
0.000000
0.000000
0.000000
0.000000
0.014706
0.000000
0.014706
0.000000
0.000000
0.000000
0.000000
0.000000
0.000000
0.044118
0.044118
0.014706
0.058824
0.014706
0.000000
0.000000
0.000000
0.000000
0.000000
0.000000
0.000000
0.044118
0.000000
0.102941
0.000000
0.044118
0.102941
0.102941
0.102941
0.176471
0.176471
0.000000
0.000000
0.044118
0.000000
0.102941
0.308824
0.308824
0.426471
0.308824
0.558824
0.000000
0.121951
0.068182
0.279070
0.132075
0.465116
0.380000
0.392857
0.267857
0.321429
0.459016
0.180328
0.255814
0.162791
0.220000
0.046512
0.214286
0.230769
0.338462
0.264706
0.353846
0.294118
0.000000
0.000000
0.000000
0.071429
0.000000
0.000000
0.147541
0.000000
0.030769
0.088235
0.076923
0.117647
0.132353
0.230769
0.000000
0.000000
0.029412
0.044118
0.014706
0.058824
0.117647
0.352941
0.250000
0.382353
0.220588
0.441176
0.000000
0.000000
0.000000
0.000000
0.000000
0.000000
0.000000
0.000000
0.000000
0.000000
0.000000
0.000000
0.000000
0.000000
0.000000
0.000000
0.000000
0.000000
0.000000
0.000000
0.000000
0.014706
0.352941
0.367647
0.352941
0.132353
0.323529
0.102941
0.117647
0.161765
0.205882
0.058824
0.132353
0.279412
0.058824
0.044118
0.044118
0.029412
0.029412
0.250000
0.176471
0.176471
0.073529
0.088235
0.000000
0.000000
0.000000
0.000000
0.000000
0.000000
0.000000
0.000000
0.000000
0.000000
0.000000
0.000000
0.000000
0.000000
0.000000
0.000000
0.000000
0.000000
0.014706
0.058824
0.058824
0.000000
0.000000
0.014706
0.000000
0.014706
0.088235
0.117647
0.191176
0.102941
0.220588
0.235294
0.058824
0.235294
0.147059
0.088235
0.058824
0.073529
0.044118
0.014706
0.338235
0.250000
0.250000
0.161765
0.352941
0.250000
0.117647
0.029412
0.044118
0.044118
0.029412
0.029412
0.102941
0.235294
0.161765
0.264706
0.102941
0.147059
0.294118
0.073529
0.117647
0.102941
0.235294
0.058824
0.147059
0.294118
0.014706
0.014706
0.014706
0.029412
0.058824
0.014706
0.014706
0.308824
0.279412
0.367647
0.205882
0.470588
0.029412
0.044118
0.029412
0.073529
0.044118
0.073529
0.088235
0.073529
0.132353
0.044118
0.029412
0.044118
0.102941
0.132353
0.088235
0.205882
0.044118
0.029412
0.029412
0.029412
0.014706
0.044118
0.000000
0.000000
0.000000
0.000000
0.000000
0.000000
0.000000
0.000000
0.000000
0.000000
0.000000
0.000000
0.000000
0.000000
0.000000
0.000000
0.000000
0.000000
0.000000
0.000000
0.000000
0.014706
0.046512
0.000000
0.053571
0.017857
0.160714
0.098361
0.016393
0.200000
0.061538
0.073529
0.030769
0.117647
0.073529
0.000000
0.323077
0.455882
0.323529
0.338235
0.264706
0.441176
0.191176
0.000000
0.014706
0.000000
0.073529
0.014706
0.139535
0.209302
0.200000
0.465116
0.285714
0.279070
0.380000
0.250000
0.392857
0.132075
0.163934
0.426230
0.121951
0.000000
0.068182
0.323077
0.230769
0.250000
0.058824
0.073529
0.117647
0.117647
0.102941
0.176471
0.132353
0.205882
0.176471
0.235294
0.117647
0.117647
0.235294
0.382353
0.352941
0.073529
0.073529
0.073529
0.014706
0.029412
0.014706
0.029412
0.014706
0.014706
0.014706
0.044118
0.000000
0.044118
0.058824
0.000000
0.058824
0.132353
0.132353
0.235294
0.205882
0.000000
0.000000
0.000000
0.073529
0.000000
0.661765
0.382353
0.485294
0.411765
0.308824
0.735294
0.308824
0.323529
0.558824
0.500000
0.426471
0.426471
0.426471
0.250000
0.161765
0.220588
0.117647
0.308824
0.044118
0.044118
0.367647
0.132353
0.205882
0.058824
0.352941
0.029412
0.382353
0.250000
0.279412
0.102941
0.220588
0.029412
0.029412
0.014706
0.088235
0.000000
0.000000
0.102941
0.014706
0.014706
0.000000
0.044118
0.000000
0.014706
0.088235
0.264706
0.161765
0.485294
0.294118
0.441176
0.573529
0.441176
0.529412
0.205882
0.323529
0.411765
0.220588
0.088235
0.132353
0.558824
0.426471
0.558824
VECTORS displacements double 
-0.002495 0.000000 0.000000 
0.002495 0.000000 0.000000 
0.002495 0.000000 0.000000 
-0.002495 0.000000 0.000000 
-0.002495 0.000000 0.000000 
-0.002495 0.000000 0.000000 
-0.002495 0.000000 0.000000 
-0.002495 0.000000 0.000000 
0.002054 0.004880 0.000002 
0.000140 0.004284 -0.000130 
0.000186 0.004103 -0.000022 
0.000249 0.003809 -0.000066 
0.000193 0.003700 -0.000213 
0.000216 0.003546 -0.000126 
0.000237 0.003427 -0.000111 
0.000239 0.003249 0.000050 
0.000227 0.003123 0.000058 
0.000266 0.003002 -0.000229 
0.000241 0.002852 -0.000147 
0.000273 0.002713 -0.000087 
0.000305 0.002590 0.000154 
0.000327 0.002585 0.000195 
0.000338 0.002444 0.000059 
0.000396 0.002367 0.000139 
0.000440 0.002365 -0.000075 
0.000485 0.002414 -0.000144 
0.000521 0.002520 0.000148 
0.000557 0.002614 0.000094 
0.000533 0.003116 0.000216 
0.000610 0.003708 0.000074 
-0.001855 0.004599 -0.000235 