# vtk DataFile Version 2.0
Solution time step = 399 
ASCII

DATASET UNSTRUCTURED_GRID
POINTS 2113 double
0.000000 0.000000 0.000000 
1.000000 0.000000 0.000000 
1.000000 1.000000 0.000000 
0.000000 1.000000 0.000000 
0.031250 0.000000 0.000000 
0.062500 0.000000 0.000000 
0.093750 0.000000 0.000000 
0.125000 0.000000 0.000000 
0.156250 0.000000 0.000000 
0.187500 0.000000 0.000000 
0.218750 0.000000 0.000000 
0.250000 0.000000 0.000000 
0.281250 0.000000 0.000000 
0.312500 0.000000 0.000000 
0.343750 0.000000 0.000000 
0.375000 0.000000 0.000000 
0.406250 0.000000 0.000000 
0.437500 0.000000 0.000000 
0.468750 0.000000 0.000000 
0.500000 0.000000 0.000000 
0.531250 0.000000 0.000000 
0.562500 0.000000 0.000000 
0.593750 0.000000 0.000000 
0.625000 0.000000 0.000000 
0.656250 0.000000 0.000000 
0.687500 0.000000 0.000000 
0.718750 0.000000 0.000000 
0.750000 0.000000 0.000000 
0.781250 0.000000 0.000000 
0.812500 0.000000 0.000000 
0.843750 0.000000 0.000000 
0.875000 0.000000 0.000000 
0.906250 0.000000 0.000000 
0.937500 0.000000 0.000000 
0.968750 0.000000 0.000000 
1.000000 0.031250 0.000000 
1.000000 0.062500 0.000000 
1.000000 0.093750 0.000000 
1.000000 0.125000 0.000000 
1.000000 0.156250 0.000000 
1.000000 0.187500 0.000000 
1.000000 0.218750 0.000000 
1.000000 0.250000 0.000000 
1.000000 0.281250 0.000000 
1.000000 0.312500 0.000000 
1.000000 0.343750 0.000000 
1.000000 0.375000 0.000000 
1.000000 0.406250 0.000000 
1.000000 0.437500 0.000000 
1.000000 0.468750 0.000000 
1.000000 0.500000 0.000000 
1.000000 0.531250 0.000000 
1.000000 0.562500 0.000000 
1.000000 0.593750 0.000000 
1.000000 0.625000 0.000000 
1.000000 0.656250 0.000000 
1.000000 0.687500 0.000000 
1.000000 0.718750 0.000000 
1.000000 0.750000 0.000000 
1.000000 0.781250 0.000000 
1.000000 0.812500 0.000000 
1.000000 0.843750 0.000000 
1.000000 0.875000 0.000000 
1.000000 0.906250 0.000000 
1.000000 0.937500 0.000000 
1.000000 0.968750 0.000000 
0.968750 1.000000 0.000000 
0.937500 1.000000 0.000000 
0.906250 1.000000 0.000000 
0.875000 1.000000 0.000000 
0.843750 1.000000 0.000000 
0.812500 1.000000 0.000000 
0.781250 1.000000 0.000000 
0.750000 1.000000 0.000000 
0.718750 1.000000 0.000000 
0.687500 1.000000 0.000000 
0.656250 1.000000 0.000000 
0.625000 1.000000 0.000000 
0.593750 1.000000 0.000000 
0.562500 1.000000 0.000000 
0.531250 1.000000 0.000000 
0.500000 1.000000 0.000000 
0.468750 1.000000 0.000000 
0.437500 1.000000 0.000000 
0.406250 1.000000 0.000000 
0.375000 1.000000 0.000000 
0.343750 1.000000 0.000000 
0.312500 1.000000 0.000000 
0.281250 1.000000 0.000000 
0.250000 1.000000 0.000000 
0.218750 1.000000 0.000000 
0.187500 1.000000 0.000000 
0.156250 1.000000 0.000000 
0.125000 1.000000 0.000000 
0.093750 1.000000 0.000000 
0.062500 1.000000 0.000000 
0.031250 1.000000 0.000000 
0.000000 0.968750 0.000000 
0.000000 0.937500 0.000000 
0.000000 0.906250 0.000000 
0.000000 0.875000 0.000000 
0.000000 0.843750 0.000000 
0.000000 0.812500 0.000000 
0.000000 0.781250 0.000000 
0.000000 0.750000 0.000000 
0.000000 0.718750 0.000000 
0.000000 0.687500 0.000000 
0.000000 0.656250 0.000000 
0.000000 0.625000 0.000000 
0.000000 0.593750 0.000000 
0.000000 0.562500 0.000000 
0.000000 0.531250 0.000000 
0.000000 0.500000 0.000000 
0.000000 0.468750 0.000000 
0.000000 0.437500 0.000000 
0.000000 0.406250 0.000000 
0.000000 0.375000 0.000000 
0.000000 0.343750 0.000000 
0.000000 0.312500 0.000000 
0.000000 0.281250 0.000000 
0.000000 0.250000 0.000000 
0.000000 0.218750 0.000000 
0.000000 0.187500 0.000000 
0.000000 0.156250 0.000000 
0.000000 0.125000 0.000000 
0.000000 0.093750 0.000000 
0.000000 0.062500 0.000000 
0.000000 0.031250 0.000000 
0.500000 0.500000 0.000000 
0.750000 0.250000 0.000000 
0.250000 0.250000 0.000000 
0.250000 0.750000 0.000000 
0.750000 0.750000 0.000000 
0.375000 0.125000 0.000000 
0.125000 0.125000 0.000000 
0.625000 0.125000 0.000000 
0.500000 0.250000 0.000000 
0.875000 0.125000 0.000000 
0.625000 0.375000 0.000000 
0.375000 0.375000 0.000000 
0.125000 0.375000 0.000000 
0.250000 0.500000 0.000000 
0.125000 0.625000 0.000000 
0.375000 0.625000 0.000000 
0.125000 0.875000 0.000000 
0.875000 0.375000 0.000000 
0.875000 0.625000 0.000000 
0.750000 0.500000 0.000000 
0.875000 0.875000 0.000000 
0.625000 0.625000 0.000000 
0.625000 0.875000 0.000000 
0.375000 0.875000 0.000000 
0.500000 0.750000 0.000000 
0.187500 0.062500 0.000000 
0.062500 0.062500 0.000000 
0.312500 0.062500 0.000000 
0.250000 0.125000 0.000000 
0.437500 0.062500 0.000000 
0.312500 0.187500 0.000000 
0.187500 0.187500 0.000000 
0.562500 0.062500 0.000000 
0.500000 0.125000 0.000000 
0.562500 0.187500 0.000000 
0.437500 0.187500 0.000000 
0.687500 0.187500 0.000000 
0.625000 0.250000 0.000000 
0.375000 0.250000 0.000000 
0.687500 0.062500 0.000000 
0.812500 0.062500 0.000000 
0.750000 0.125000 0.000000 
0.937500 0.062500 0.000000 
0.812500 0.187500 0.000000 
0.437500 0.312500 0.000000 
0.312500 0.312500 0.000000 
0.562500 0.312500 0.000000 
0.500000 0.375000 0.000000 
0.687500 0.312500 0.000000 
0.562500 0.437500 0.000000 
0.437500 0.437500 0.000000 
0.062500 0.187500 0.000000 
0.125000 0.250000 0.000000 
0.062500 0.312500 0.000000 
0.187500 0.312500 0.000000 
0.062500 0.437500 0.000000 
0.250000 0.375000 0.000000 
0.187500 0.437500 0.000000 
0.187500 0.562500 0.000000 
0.125000 0.500000 0.000000 
0.250000 0.625000 0.000000 
0.187500 0.687500 0.000000 
0.062500 0.562500 0.000000 
0.312500 0.437500 0.000000 
0.375000 0.500000 0.000000 
0.312500 0.562500 0.000000 
0.437500 0.562500 0.000000 
0.312500 0.687500 0.000000 
0.062500 0.687500 0.000000 
0.125000 0.750000 0.000000 
0.062500 0.812500 0.000000 
0.187500 0.812500 0.000000 
0.062500 0.937500 0.000000 
0.937500 0.187500 0.000000 
0.937500 0.312500 0.000000 
0.875000 0.250000 0.000000 
0.937500 0.437500 0.000000 
0.812500 0.312500 0.000000 
0.937500 0.562500 0.000000 
0.875000 0.500000 0.000000 
0.812500 0.562500 0.000000 
0.812500 0.437500 0.000000 
0.812500 0.687500 0.000000 
0.750000 0.625000 0.000000 
0.750000 0.375000 0.000000 
0.937500 0.687500 0.000000 
0.937500 0.812500 0.000000 
0.875000 0.750000 0.000000 
0.937500 0.937500 0.000000 
0.812500 0.812500 0.000000 
0.687500 0.437500 0.000000 
0.687500 0.562500 0.000000 
0.625000 0.500000 0.000000 
0.687500 0.687500 0.000000 
0.562500 0.562500 0.000000 
0.812500 0.937500 0.000000 
0.687500 0.937500 0.000000 
0.750000 0.875000 0.000000 
0.562500 0.937500 0.000000 
0.687500 0.812500 0.000000 
0.437500 0.937500 0.000000 
0.500000 0.875000 0.000000 
0.437500 0.812500 0.000000 
0.562500 0.812500 0.000000 
0.312500 0.812500 0.000000 
0.375000 0.750000 0.000000 
0.625000 0.750000 0.000000 
0.312500 0.937500 0.000000 
0.187500 0.937500 0.000000 
0.250000 0.875000 0.000000 
0.562500 0.687500 0.000000 
0.437500 0.687500 0.000000 
0.500000 0.625000 0.000000 
0.093750 0.031250 0.000000 
0.031250 0.031250 0.000000 
0.156250 0.031250 0.000000 
0.125000 0.062500 0.000000 
0.218750 0.031250 0.000000 
0.156250 0.093750 0.000000 
0.093750 0.093750 0.000000 
0.281250 0.031250 0.000000 
0.250000 0.062500 0.000000 
0.281250 0.093750 0.000000 
0.218750 0.093750 0.000000 
0.343750 0.093750 0.000000 
0.312500 0.125000 0.000000 
0.187500 0.125000 0.000000 
0.343750 0.031250 0.000000 
0.406250 0.031250 0.000000 
0.375000 0.062500 0.000000 
0.468750 0.031250 0.000000 
0.406250 0.093750 0.000000 
0.218750 0.156250 0.000000 
0.156250 0.156250 0.000000 
0.281250 0.156250 0.000000 
0.250000 0.187500 0.000000 
0.343750 0.156250 0.000000 
0.281250 0.218750 0.000000 
0.218750 0.218750 0.000000 
0.531250 0.031250 0.000000 
0.500000 0.062500 0.000000 
0.531250 0.093750 0.000000 
0.468750 0.093750 0.000000 
0.593750 0.093750 0.000000 
0.562500 0.125000 0.000000 
0.437500 0.125000 0.000000 
0.593750 0.156250 0.000000 
0.531250 0.156250 0.000000 
0.500000 0.187500 0.000000 
0.468750 0.156250 0.000000 
0.531250 0.218750 0.000000 
0.468750 0.218750 0.000000 
0.406250 0.156250 0.000000 
0.656250 0.156250 0.000000 
0.625000 0.187500 0.000000 
0.656250 0.218750 0.000000 
0.593750 0.218750 0.000000 
0.718750 0.218750 0.000000 
0.687500 0.250000 0.000000 
0.562500 0.250000 0.000000 
0.375000 0.187500 0.000000 
0.406250 0.218750 0.000000 
0.343750 0.218750 0.000000 
0.437500 0.250000 0.000000 
0.312500 0.250000 0.000000 
0.593750 0.031250 0.000000 
0.656250 0.031250 0.000000 
0.625000 0.062500 0.000000 
0.718750 0.031250 0.000000 
0.656250 0.093750 0.000000 
0.781250 0.031250 0.000000 
0.750000 0.062500 0.000000 
0.781250 0.093750 0.000000 
0.718750 0.093750 0.000000 
0.843750 0.093750 0.000000 
0.812500 0.125000 0.000000 
0.687500 0.125000 0.000000 
0.843750 0.031250 0.000000 
0.906250 0.031250 0.000000 
0.875000 0.062500 0.000000 
0.968750 0.031250 0.000000 
0.906250 0.093750 0.000000 
0.718750 0.156250 0.000000 
0.781250 0.156250 0.000000 
0.750000 0.187500 0.000000 
0.843750 0.156250 0.000000 
0.781250 0.218750 0.000000 
0.343750 0.281250 0.000000 
0.281250 0.281250 0.000000 
0.406250 0.281250 0.000000 
0.375000 0.312500 0.000000 
0.468750 0.281250 0.000000 
0.406250 0.343750 0.000000 
0.343750 0.343750 0.000000 
0.531250 0.281250 0.000000 
0.500000 0.312500 0.000000 
0.531250 0.343750 0.000000 
0.468750 0.343750 0.000000 
0.593750 0.343750 0.000000 
0.562500 0.375000 0.000000 
0.437500 0.375000 0.000000 
0.593750 0.281250 0.000000 
0.656250 0.281250 0.000000 
0.625000 0.312500 0.000000 
0.718750 0.281250 0.000000 
0.656250 0.343750 0.000000 
0.468750 0.406250 0.000000 
0.406250 0.406250 0.000000 
0.531250 0.406250 0.000000 
0.500000 0.437500 0.000000 
0.593750 0.406250 0.000000 
0.531250 0.468750 0.000000 
0.468750 0.468750 0.000000 
0.031250 0.093750 0.000000 
0.062500 0.125000 0.000000 
0.031250 0.156250 0.000000 
0.093750 0.156250 0.000000 
0.031250 0.218750 0.000000 
0.125000 0.187500 0.000000 
0.093750 0.218750 0.000000 
0.093750 0.281250 0.000000 
0.062500 0.250000 0.000000 
0.125000 0.312500 0.000000 
0.093750 0.343750 0.000000 
0.031250 0.281250 0.000000 
[...]
POINT_DATA 2113
SCALARS damage double
LOOKUP_TABLE default
0.000000
0.000000
0.000000
0.000000
0.000000
0.060606
0.189189
0.378378
0.405405
0.162162
0.081081
0.000000
0.000000
0.000000
0.000000
0.000000
0.000000
0.000000
0.000000
0.000000
0.000000
0.027027
0.000000
0.000000
0.000000
0.000000
0.000000
0.027027
0.108108
0.135135
0.351351
0.378378
0.189189
0.060606
0.000000
0.000000
0.000000
0.000000
0.000000
0.000000
0.000000
0.000000
0.000000
0.000000
0.000000
0.000000
0.000000
0.000000
0.000000
0.000000
0.000000
0.000000
0.000000
0.000000
0.000000
0.000000
0.000000
0.000000
0.000000
0.000000
0.000000
0.000000
0.000000
0.000000
0.000000
0.000000
0.000000
0.060606
0.189189
0.378378
0.405405
0.189189
0.081081
0.000000
0.000000
0.000000
0.000000
0.000000
0.000000
0.000000
0.000000
0.000000
0.000000
0.000000
0.000000
0.000000
0.027027
0.000000
0.000000
0.000000
0.081081
0.162162
0.324324
0.378378
0.189189
0.060606
0.000000
0.000000
0.000000
0.000000
0.000000
0.000000
0.000000
0.000000
0.000000
0.000000
0.000000
0.000000
0.000000
0.000000
0.000000
0.000000
0.000000
0.000000
0.000000
0.000000
0.000000
0.000000
0.000000
0.000000
0.000000
0.000000
0.000000
0.000000
0.000000
0.000000
0.000000
0.000000
0.558824
0.073529
0.014706
0.117647
0.132353
0.058824
0.191176
0.014706
0.176471
0.264706
0.000000
0.000000
0.058824
0.000000
0.058824
0.000000
0.235294
0.058824
0.058824
0.000000
0.250000
0.000000
0.014706
0.000000
0.308824
0.295082
0.055556
0.000000
0.117647
0.000000
0.147059
0.426471
0.000000
0.014706
0.029412
0.161765
0.029412
0.014706
0.235294
0.000000
0.229508
0.073529
0.055556
0.397059
0.323529
0.000000
0.073529
0.558824
0.000000
0.176471
0.102941
0.049180
0.088235
0.032787
0.044118
0.000000
0.000000
0.044118
0.058824
0.014706
0.029412
0.147059
0.000000
0.000000
0.000000
0.000000
0.102941
0.000000
0.049180
0.117647
0.049180
0.411765
0.055556
0.049180
0.049180
0.117647
0.000000
0.132353
0.000000
0.014706
0.044118
0.044118
0.058824
0.014706
0.014706
0.032787
0.049180
0.088235
0.055556
0.397059
0.000000
0.000000
0.000000
0.000000
0.176471
0.213115
0.000000
0.088235
0.000000
0.044118
0.000000
0.014706
0.117647
0.073529
0.029412
0.176471
0.117647
0.000000
0.295082
0.102941
0.191176
0.205882
0.558824
0.200000
0.000000
0.400000
0.278689
0.100000
0.441176
0.147059
0.000000
0.081967
0.102941
0.161765
0.000000
0.058824
0.338235
0.000000
0.000000
0.000000
0.000000
0.000000
0.250000
0.455882
0.205882
0.088235
0.279412
0.029412
0.044118
0.000000
0.000000
0.000000
0.000000
0.000000
0.014706
0.044118
0.014706
0.014706
0.044118
0.073529
0.044118
0.176471
0.132353
0.029412
0.014706
0.044118
0.029412
0.058824
0.014706
0.014706
0.338235
0.544118
0.147059
0.382353
0.029412
0.000000
0.000000
0.000000
0.000000
0.014706
0.100000
0.000000
0.117647
0.029412
0.455882
0.411765
0.000000
0.380000
0.180000
0.311475
0.000000
0.176471
0.073529
0.161765
0.117647
0.441176
0.176471
0.058824
0.000000
0.294118
0.102941
0.367647
0.117647
0.000000
0.088235
0.294118
0.279412
0.382353
0.014706
0.132353
0.191176
0.044118
0.029412
0.000000
0.029412
0.000000
0.323529
0.000000
0.382353
0.573529
0.044118
0.426471
0.308824
0.000000
0.049180
0.000000
0.102941
0.000000
0.117647
0.073529
0.058824
0.049180
0.058824
0.029412
0.000000
0.455882
0.058824
0.470588
0.014706
0.117647
0.000000
0.000000
0.000000
0.000000
0.000000
0.029412
0.029412
0.000000
0.029412
0.000000
0.000000
0.044118
0.029412
0.044118
0.044118
0.044118
0.073529
0.029412
0.014706
0.014706
0.044118
0.044118
0.029412
0.044118
0.117647
0.500000
0.000000
0.000000
0.000000
0.014706
0.000000
0.000000
0.000000
0.000000
0.000000
0.000000
0.000000
0.000000
0.000000
0.000000
0.000000
0.000000
0.000000
0.000000
0.102941
0.000000
0.308824
0.000000
0.000000
0.000000
0.000000
0.000000
0.044118
0.000000
0.016393
0.000000
0.044118
0.000000
0.073529
0.073529
0.088235
0.049180
0.176471
0.117647
0.000000
0.470588
0.382353
0.455882
0.250000
0.441176
0.000000
0.049180
0.000000
0.176471
0.000000
0.000000
0.000000
0.049180
0.000000
0.117647
0.000000
0.049180
0.073529
0.088235
0.044118
0.073529
0.176471
0.000000
0.000000
0.016393
0.000000
0.014706
0.455882
0.470588
0.382353
0.485294
0.088235
0.000000
0.000000
0.000000
0.000000
0.000000
0.029412
0.029412
0.088235
0.044118
0.044118
0.044118
0.000000
0.014706
0.073529
0.132353
0.044118
0.044118
0.029412
0.073529
0.058824
0.000000
0.029412
0.014706
0.029412
0.014706
0.058824
0.000000
0.000000
0.000000
0.000000
0.044118
0.000000
0.049180
0.073529
0.058824
0.102941
0.161765
0.058824
0.000000
0.000000
0.049180
0.000000
0.176471
0.485294
0.455882
0.367647
0.441176
0.220588
0.000000
0.000000
0.000000
0.000000
0.000000
0.000000
0.000000
0.000000
0.000000
0.000000
0.000000
0.000000
0.000000
0.000000
0.000000
0.044118
0.000000
0.044118
0.044118
0.176471
0.044118
0.411765
0.200000
0.380000
0.311475
0.100000
0.441176
0.000000
0.016393
0.014706
0.147059
0.014706
0.000000
0.455882
0.000000
0.000000
0.000000
0.000000
0.000000
0.220588
0.147059
0.147059
0.044118
0.161765
0.000000
0.000000
0.000000
0.000000
0.000000
0.014706
0.000000
0.029412
0.029412
0.029412
0.000000
0.205882
0.220588
0.014706
0.044118
0.132353
0.088235
0.132353
0.147059
0.102941
0.220588
0.044118
0.161765
0.073529
0.205882
0.029412
0.000000
0.000000
0.000000
0.000000
0.000000
0.100000
0.049180
0.161765
0.044118
0.441176
0.441176
0.014706
0.380000
0.200000
0.311475
0.117647
0.205882
0.161765
0.000000
0.147059
0.014706
0.367647
0.044118
0.308824
0.441176
0.323529
0.323529
0.058824
0.147059
0.132353
0.191176
0.102941
0.058824
0.382353
0.352941
0.558824
0.000000
0.000000
0.121951
0.068182
0.279070
0.132075
0.000000
0.465116
0.380000
0.357143
0.250000
0.285714
0.442623
0.163934
0.209302
0.139535
0.200000
0.046512
0.214286
0.184615
0.112903
0.276923
0.205882
0.323077
0.235294
0.132353
0.000000
0.000000
0.017857
0.053571
0.000000
0.032787
0.180328
0.015385
0.061538
0.102941
0.123077
0.117647
0.117647
0.215385
0.000000
0.029412
0.029412
0.088235
0.044118
0.088235
0.132353
0.382353
0.323529
0.323529
0.308824
0.426471
0.000000
0.000000
0.000000
0.000000
0.000000
0.000000
0.000000
0.000000
0.000000
0.000000
0.000000
0.000000
0.000000
0.000000
0.000000
0.000000
0.000000
0.000000
0.000000
0.000000
0.000000
0.044118
0.323529
0.220588
0.220588
0.352941
0.191176
0.176471
0.161765
0.176471
0.147059
0.176471
0.132353
0.132353
0.088235
0.044118
0.220588
0.147059
0.191176
0.117647
0.205882
0.029412
0.058824
0.058824
0.044118
0.058824
0.014706
0.014706
0.000000
0.000000
0.000000
0.000000
0.000000
0.000000
0.000000
0.000000
0.000000
0.000000
0.000000
0.014706
0.014706
0.000000
0.000000
0.000000
0.000000
0.000000
0.000000
0.014706
0.000000
0.000000
0.014706
0.029412
0.014706
0.044118
0.014706
0.029412
0.014706
0.014706
0.014706
0.014706
0.000000
0.044118
0.029412
0.058824
0.029412
0.132353
0.102941
0.000000
0.058824
0.044118
0.102941
0.147059
0.058824
0.176471
0.176471
0.058824
0.102941
0.102941
0.176471
0.117647
0.000000
0.014706
0.014706
0.000000
0.014706
0.029412
0.014706
0.029412
0.014706
0.029412
0.014706
0.029412
0.029412
0.029412
0.044118
0.014706
0.014706
0.029412
0.073529
0.044118
0.029412
0.058824
0.044118
0.044118
0.014706
0.029412
0.205882
0.235294
0.308824
0.250000
0.205882
0.294118
0.367647
0.264706
0.220588
0.308824
0.205882
0.161765
0.323529
0.294118
0.411765
0.250000
0.352941
0.073529
0.088235
0.014706
0.102941
0.014706
0.023256
0.000000
0.000000
0.000000
0.000000
0.000000
0.000000
0.000000
0.000000
0.000000
0.000000
0.000000
0.000000
0.000000
0.000000
0.000000
0.000000
0.000000
0.000000
0.000000
0.000000
0.000000
0.069767
0.000000
0.053571
0.000000
0.178571
0.098361
0.000000
0.153846
0.061538
0.058824
0.015385
0.102941
0.058824
0.000000
0.323077
0.397059
0.338235
0.191176
0.294118
0.455882
0.176471
0.014706
0.000000
0.000000
0.058824
0.014706
0.139535
0.209302
0.200000
0.465116
0.267857
0.279070
0.360000
0.250000
0.392857
0.132075
0.163934
0.426230
0.121951
0.000000
0.068182
0.000000
0.000000
0.323077
0.230769
0.264706
0.112903
0.205882
0.000000
0.014706
0.014706
0.102941
0.044118
0.117647
0.088235
0.117647
0.132353
0.308824
0.191176
0.088235
0.191176
0.323529
0.352941
0.279412
0.308824
0.102941
0.147059
0.117647
0.235294
0.073529
0.014706
0.014706
0.073529
0.000000
0.147059
0.014706
0.014706
0.264706
0.191176
0.176471
0.073529
0.294118
0.220588
0.014706
0.397059
0.382353
0.602941
0.235294
0.455882
0.058824
0.000000
0.132353
0.044118
0.205882
0.044118
0.000000
0.132353
0.220588
0.205882
0.294118
0.088235
0.220588
0.397059
0.132353
0.338235
0.338235
0.411765
0.367647
0.411765
0.308824
0.073529
0.102941
0.058824
0.191176
0.000000
0.029412
0.308824
0.264706
0.294118
0.161765
0.367647
0.058824
0.029412
0.029412
0.029412
0.014706
0.044118
0.014706
0.029412
0.000000
0.029412
0.014706
0.000000
0.029412
0.029412
0.014706
0.000000
0.044118
0.014706
0.000000
0.000000
0.000000
0.000000
0.000000
0.088235
0.000000
0.220588
0.132353
0.426471
0.191176
0.044118
0.485294
0.544118
0.529412
0.411765
0.294118
0.397059
0.308824
0.250000
0.088235
0.161765
0.000000
0.102941
0.426471
0.176471
0.558824
0.558824
0.308824
0.544118
0.426471
0.000000
0.000000
0.000000
0.000000
0.000000
0.049180
0.000000
0.000000
0.000000
0.049180
0.000000
0.000000
0.107692
0.117647
0.092308
0.117647
0.076923
0.000000
0.000000
0.000000
0.000000
0.000000
0.147059
0.102941
0.088235
0.088235
0.088235
0.088235
0.061538
0.073529
0.073529
0.061538
0.061538
0.046154
0.049180
0.049180
0.073529
0.058824
0.058824
0.044118
0.058824
0.044118
0.030769
0.000000
0.000000
0.000000
0.000000
0.000000
0.161765
0.455882
0.102941
0.102941
0.102941
0.073529
0.058824
0.029412
0.455882
0.044118
0.058824
0.088235
0.058824
0.029412
0.058824
0.014706
0.058824
0.058824
0.485294
0.058824
0.132353
0.058824
0.000000
0.000000
0.000000
0.000000
0.000000
0.016393
0.000000
0.000000
0.000000
0.000000
0.000000
0.000000
0.015385
0.014706
0.000000
0.029412
0.000000
0.000000
0.000000
0.000000
0.000000
0.000000
0.000000
0.029412
0.014706
0.029412
0.000000
0.014706
0.029412
0.000000
0.000000
0.014706
0.014706
0.014706
0.044118
0.029412
0.000000
0.000000
0.000000
0.000000
0.000000
0.014706
0.014706
0.102941
0.058824
0.088235
0.058824
0.044118
0.000000
0.014706
0.029412
0.029412
0.029412
0.044118
0.058824
0.161765
0.073529
0.044118
0.102941
0.029412
0.029412
0.073529
0.102941
0.058824
0.044118
0.029412
0.058824
0.044118
0.014706
0.044118
0.029412
0.029412
0.014706
0.044118
0.000000
0.029412
0.044118
0.029412
0.014706
0.058824
0.044118
0.044118
0.029412
0.029412
0.044118
0.088235
0.058824
0.044118
0.044118
0.088235
0.073529
0.102941
0.073529
0.073529
0.102941
0.411765
0.191176
0.102941
0.102941
0.058824
0.000000
0.000000
0.000000
0.000000
0.000000
0.000000
0.000000
0.000000
0.000000
0.000000
0.000000
0.000000
0.000000
0.014706
0.000000
0.044118
0.000000
0.000000
0.000000
0.000000
0.000000
0.000000
0.000000
0.000000
0.000000
0.000000
0.000000
0.000000
0.000000
0.000000
0.000000
0.000000
0.000000
0.000000
0.000000
0.000000
0.000000
0.000000
0.000000
0.000000
0.000000
0.000000
0.000000
0.000000
0.000000
0.000000
0.000000
0.000000
0.000000
0.000000
0.000000
0.000000
0.000000
0.000000
0.000000
0.000000
0.000000
0.000000
0.000000
0.000000
0.000000
0.000000
0.000000
0.000000
0.000000
0.000000
0.000000
0.000000
0.000000
0.000000
0.000000
0.000000
0.000000
0.044118
0.000000
0.102941
0.044118
0.044118
0.000000
0.102941
0.044118
0.000000
0.176471
0.308824
0.176471
0.426471
0.176471
0.000000
0.000000
0.000000
0.044118
0.000000
0.000000
0.000000
0.014706
0.000000
0.014706
0.000000
0.000000
0.000000
0.000000
0.000000
0.000000
0.014706
0.000000
0.000000
0.000000
0.000000
0.000000
0.014706
0.014706
0.029412
0.014706
0.088235
0.000000
0.000000
0.000000
0.000000
0.000000
0.000000
0.000000
0.000000
0.000000
0.032787
0.000000
0.000000
0.015385
0.029412
0.030769
0.044118
0.046154
0.000000
0.000000
0.000000
0.000000
0.000000
0.058824
0.058824
0.073529
0.058824
0.088235
0.088235
0.061538
0.102941
0.073529
0.061538
0.061538
0.076923
0.049180
0.049180
0.147059
0.102941
0.132353
0.102941
0.176471
0.161765
0.092308
0.000000
0.000000
0.000000
0.000000
0.000000
0.073529
0.500000
0.088235
0.088235
0.117647
0.397059
0.088235
0.220588
0.455882
0.426471
0.250000
0.161765
0.058824
0.117647
0.235294
0.161765
0.294118
0.220588
0.455882
0.250000
0.352941
0.264706
0.000000
0.000000
0.000000
0.000000
0.000000
0.049180
0.000000
0.000000
0.000000
0.049180
0.000000
0.000000
0.107692
0.147059
0.107692
0.205882
0.112903
0.000000
0.000000
0.000000
0.000000
0.000000
0.000000
0.000000
0.000000
0.000000
0.000000
0.000000
0.000000
0.000000
0.000000
0.000000
0.049180
0.049180
0.000000
0.000000
0.000000
0.000000
0.000000
0.107692
0.107692
0.161765
0.092308
0.176471
0.000000
0.000000
0.000000
0.000000
0.000000
0.049180
0.049180
0.061538
0.061538
0.073529
0.061538
0.088235
0.088235
0.076923
0.046154
0.058824
0.058824
0.073529
0.044118
0.058824
0.088235
0.102941
0.102941
0.147059
0.147059
0.191176
0.000000
0.000000
0.000000
0.000000
0.000000
0.000000
0.000000
0.000000
0.000000
0.000000
0.000000
0.032787
0.000000
0.000000
0.000000
0.000000
0.000000
0.030769
0.015385
0.029412
0.000000
0.029412
0.235294
0.176471
0.455882
0.132353
0.176471
0.088235
0.455882
0.058824
0.102941
0.073529
0.250000
0.397059
0.088235
0.058824
0.485294
0.058824
0.073529
0.102941
0.073529
0.073529
0.073529
0.058824
0.000000
0.000000
0.000000
0.000000
0.000000
0.000000
0.000000
0.000000
0.000000
0.000000
0.000000
0.000000
0.000000
0.000000
0.000000
0.000000
0.014706
0.000000
0.014706
0.029412
0.014706
0.000000
0.000000
0.014706
0.014706
0.044118
0.044118
0.029412
0.044118
0.029412
0.147059
0.058824
0.029412
0.044118
0.058824
0.073529
0.044118
0.044118
0.058824
0.029412
0.014706
0.029412
0.000000
0.014706
0.000000
0.014706
0.014706
0.029412
0.058824
0.044118
0.073529
0.058824
0.058824
0.073529
0.411765
0.117647
0.132353
0.044118
0.044118
0.044118
0.044118
0.044118
0.044118
0.029412
0.044118
0.014706
0.073529
0.088235
0.073529
0.058824
0.102941
0.058824
0.029412
0.000000
0.029412
0.000000
0.014706
0.000000
0.088235
0.323529
0.073529
0.029412
0.044118
0.029412
0.029412
0.014706
0.029412
0.014706
0.014706
0.073529
0.014706
0.000000
0.014706
0.000000
0.014706
0.058824
0.029412
0.058824
0.014706
0.073529
0.000000
0.000000
0.000000
0.000000
0.000000
0.000000
0.000000
0.000000
0.000000
0.000000
0.016393
0.000000
0.000000
0.000000
0.000000
0.000000
0.000000
0.000000
0.015385
0.014706
0.030769
0.044118
0.000000
0.000000
0.000000
0.000000
0.000000
0.049180
0.049180
0.061538
0.061538
0.073529
0.061538
0.088235
0.073529
0.046154
0.076923
0.088235
0.132353
0.102941
0.176471
0.191176
0.117647
0.044118
0.058824
0.058824
0.073529
0.058824
0.000000
0.000000
0.000000
0.000000
0.000000
0.000000
0.000000
0.000000
0.000000
0.000000
0.049180
0.049180
0.000000
0.000000
0.000000
0.000000
0.000000
0.092308
0.107692
0.147059
0.112903
0.191176
0.058824
0.073529
0.485294
0.088235
0.073529
0.102941
0.455882
0.176471
0.117647
0.205882
0.397059
0.367647
0.176471
0.235294
0.455882
0.264706
0.250000
0.117647
0.235294
0.132353
0.264706
0.191176
0.029412
0.000000
0.000000
0.014706
0.000000
0.014706
0.000000
0.000000
0.000000
0.000000
0.000000
0.000000
0.014706
0.000000
0.000000
0.000000
0.000000
0.000000
0.000000
0.000000
0.000000
0.000000
0.000000
0.000000
0.000000
0.000000
0.000000
0.000000
0.000000
0.000000
0.000000
0.000000
0.000000
0.000000
0.000000
0.000000
0.000000
0.000000
0.000000
0.000000
0.000000
0.000000
0.000000
0.000000
0.000000
0.000000
0.000000
0.000000
0.000000
0.000000
0.000000
0.014706
0.000000
0.014706
0.000000
0.000000
0.000000
0.000000
0.000000
0.000000
0.029412
0.029412
0.014706
0.058824
0.000000
0.000000
0.000000
0.000000
0.000000
0.000000
0.000000
0.000000
0.044118
0.000000
0.102941
0.000000
0.044118
0.102941
0.102941
0.102941
0.176471
0.176471
0.000000
0.000000
0.044118
0.000000
0.102941
0.308824
0.308824
0.426471
0.308824
0.558824
0.000000
0.121951
0.068182
0.279070
0.132075
0.465116
0.380000
0.392857
0.267857
0.285714
0.426230
0.180328
0.209302
0.162791
0.200000
0.046512
0.160714
0.230769
0.323077
0.250000
0.353846
0.279412
0.000000
0.000000
0.000000
0.053571
0.000000
0.000000
0.114754
0.000000
0.015385
0.044118
0.061538
0.058824
0.102941
0.169231
0.000000
0.014706
0.000000
0.000000
0.000000
0.014706
0.044118
0.294118
0.235294
0.323529
0.161765
0.426471
0.000000
0.000000
0.000000
0.000000
0.000000
0.000000
0.000000
0.000000
0.000000
0.000000
0.000000
0.000000
0.000000
0.000000
0.000000
0.000000
0.000000
0.000000
0.000000
0.000000
0.000000
0.000000
0.323529
0.352941
0.352941
0.132353
0.323529
0.102941
0.132353
0.176471
0.191176
0.044118
0.147059
0.220588
0.044118
0.014706
0.044118
0.014706
0.014706
0.205882
0.191176
0.176471
0.088235
0.191176
0.000000
0.000000
0.000000
0.000000
0.000000
0.000000
0.000000
0.000000
0.000000
0.000000
0.000000
0.000000
0.000000
0.000000
0.000000
0.000000
0.014706
0.000000
0.014706
0.000000
0.014706
0.000000
0.000000
0.000000
0.014706
0.000000
0.000000
0.014706
0.029412
0.029412
0.058824
0.029412
0.014706
0.044118
0.029412
0.029412
0.014706
0.014706
0.014706
0.014706
0.147059
0.088235
0.191176
0.117647
0.264706
0.264706
0.161765
0.014706
0.014706
0.000000
0.029412
0.014706
0.014706
0.029412
0.088235
0.044118
0.044118
0.058824
0.088235
0.044118
0.102941
0.117647
0.132353
0.132353
0.117647
0.132353
0.088235
0.058824
0.102941
0.088235
0.161765
0.117647
0.132353
0.132353
0.161765
0.220588
0.147059
0.250000
0.014706
0.029412
0.058824
0.058824
0.044118
0.132353
0.088235
0.117647
0.088235
0.147059
0.147059
0.073529
0.205882
0.308824
0.250000
0.352941
0.176471
0.058824
0.058824
0.102941
0.073529
0.058824
0.000000
0.000000
0.000000
0.000000
0.000000
0.023256
0.000000
0.000000
0.000000
0.000000
0.000000
0.000000
0.000000
0.000000
0.000000
0.000000
0.000000
0.000000
0.000000
0.000000
0.000000
0.000000
0.046512
0.000000
0.053571
0.017857
0.160714
0.147541
0.016393
0.215385
0.107692
0.088235
0.061538
0.132353
0.073529
0.000000
0.323077
0.455882
0.338235
0.352941
0.279412
0.441176
0.220588
0.000000
0.029412
0.014706
0.102941
0.014706
0.139535
0.232558
0.200000
0.465116
0.285714
0.279070
0.360000
0.250000
0.392857
0.132075
0.163934
0.426230
0.121951
0.000000
0.068182
0.338462
0.230769
0.264706
0.014706
0.088235
0.029412
0.147059
0.073529
0.161765
0.147059
0.176471
0.147059
0.338235
0.235294
0.147059
0.352941
0.352941
0.352941
0.191176
0.191176
0.161765
0.000000
0.014706
0.014706
0.058824
0.000000
0.102941
0.000000
0.073529
0.000000
0.147059
0.088235
0.000000
0.176471
0.250000
0.176471
0.455882
0.264706
0.000000
0.029412
0.000000
0.132353
0.000000
0.294118
0.338235
0.426471
0.588235
0.397059
0.500000
0.441176
0.250000
0.529412
0.455882
0.382353
0.411765
0.382353
0.279412
0.132353
0.176471
0.088235
0.250000
0.029412
0.029412
0.352941
0.161765
0.220588
0.073529
0.338235
0.029412
0.264706
0.220588
0.308824
0.176471
0.205882
0.117647
0.147059
0.088235
0.102941
0.044118
0.029412
0.117647
0.088235
0.073529
0.058824
0.073529
0.029412
0.014706
0.088235
0.250000
0.161765
0.485294
0.294118
0.441176
0.544118
0.441176
0.529412
0.205882
0.323529
0.411765
0.220588
0.073529
0.132353
0.558824
0.426471
0.558824
VECTORS displacements double 
-0.001995 0.000000 0.000000 
0.001995 0.000000 0.000000 
0.001995 0.000000 0.000000 
-0.001995 0.000000 0.000000 
-0.001995 0.000000 0.000000 
-0.001995 0.000000 0.000000 
-0.001995 0.000000 0.000000 
-0.001995 0.000000 0.000000 
0.002817 0.004168 -0.000218 
0.000016 0.003438 -0.000026 
0.000066 0.003136 0.000183 
0.000103 0.003059 -0.000015 
0.000142 0.002977 -0.000035 
0.000136 0.002877 0.000100 
0.000137 0.002813 0.000049 
0.000144 0.002720 0.000031 
0.000122 0.002648 -0.000062 
0.000107 0.002609 -0.000099 
0.000135 0.002474 -0.000123 
0.000127 0.002441 0.000107 
0.000132 0.002337 0.000058 
0.000168 0.002231 -0.000029 
0.000184 0.002215 -0.000175 
0.000211 0.002205 -0.000190 
0.000243 0.002190 -0.000189 
0.000340 0.002199 0.000243 
0.000338 0.002380 0.000008 
0.000342 0.002402 -0.000279 
0.000327 0.002672 -0.000104 
0.000511 0.003088 -0.000078 
-0.001936 0.004151 -0.000000 