# vtk DataFile Version 2.0
Solution time step = 499 
ASCII

DATASET UNSTRUCTURED_GRID
POINTS 2113 double
0.000000 0.000000 0.000000 
1.000000 0.000000 0.000000 
1.000000 1.000000 0.000000 
0.000000 1.000000 0.000000 
0.031250 0.000000 0.000000 
0.062500 0.000000 0.000000 
0.093750 0.000000 0.000000 
0.125000 0.000000 0.000000 
0.156250 0.000000 0.000000 
0.187500 0.000000 0.000000 
0.218750 0.000000 0.000000 
0.250000 0.000000 0.000000 
0.281250 0.000000 0.000000 
0.312500 0.000000 0.000000 
0.343750 0.000000 0.000000 
0.375000 0.000000 0.000000 
0.406250 0.000000 0.000000 
0.437500 0.000000 0.000000 
0.468750 0.000000 0.000000 
0.500000 0.000000 0.000000 
0.531250 0.000000 0.000000 
0.562500 0.000000 0.000000 
0.593750 0.000000 0.000000 
0.625000 0.000000 0.000000 
0.656250 0.000000 0.000000 
0.687500 0.000000 0.000000 
0.718750 0.000000 0.000000 
0.750000 0.000000 0.000000 
0.781250 0.000000 0.000000 
0.812500 0.000000 0.000000 
0.843750 0.000000 0.000000 
0.875000 0.000000 0.000000 
0.906250 0.000000 0.000000 
0.937500 0.000000 0.000000 
0.968750 0.000000 0.000000 
1.000000 0.031250 0.000000 
1.000000 0.062500 0.000000 
1.000000 0.093750 0.000000 
1.000000 0.125000 0.000000 
1.000000 0.156250 0.000000 
1.000000 0.187500 0.000000 
1.000000 0.218750 0.000000 
1.000000 0.250000 0.000000 
1.000000 0.281250 0.000000 
1.000000 0.312500 0.000000 
1.000000 0.343750 0.000000 
1.000000 0.375000 0.000000 
1.000000 0.406250 0.000000 
1.000000 0.437500 0.000000 
1.000000 0.468750 0.000000 
1.000000 0.500000 0.000000 
1.000000 0.531250 0.000000 
1.000000 0.562500 0.000000 
1.000000 0.593750 0.000000 
1.000000 0.625000 0.000000 
1.000000 0.656250 0.000000 
1.000000 0.687500 0.000000 
1.000000 0.718750 0.000000 
1.000000 0.750000 0.000000 
1.000000 0.781250 0.000000 
1.000000 0.812500 0.000000 
1.000000 0.843750 0.000000 
1.000000 0.875000 0.000000 
1.000000 0.906250 0.000000 
1.000000 0.937500 0.000000 
1.000000 0.968750 0.000000 
0.968750 1.000000 0.000000 
0.937500 1.000000 0.000000 
0.906250 1.000000 0.000000 
0.875000 1.000000 0.000000 
0.843750 1.000000 0.000000 
0.812500 1.000000 0.000000 
0.781250 1.000000 0.000000 
0.750000 1.000000 0.000000 
0.718750 1.000000 0.000000 
0.687500 1.000000 0.000000 
0.656250 1.000000 0.000000 
0.625000 1.000000 0.000000 
0.593750 1.000000 0.000000 
0.562500 1.000000 0.000000 
0.531250 1.000000 0.000000 
0.500000 1.000000 0.000000 
0.468750 1.000000 0.000000 
0.437500 1.000000 0.000000 
0.406250 1.000000 0.000000 
0.375000 1.000000 0.000000 
0.343750 1.000000 0.000000 
0.312500 1.000000 0.000000 
0.281250 1.000000 0.000000 
0.250000 1.000000 0.000000 
0.218750 1.000000 0.000000 
0.187500 1.000000 0.000000 
0.156250 1.000000 0.000000 
0.125000 1.000000 0.000000 
0.093750 1.000000 0.000000 
0.062500 1.000000 0.000000 
0.031250 1.000000 0.000000 
0.000000 0.968750 0.000000 
0.000000 0.937500 0.000000 
0.000000 0.906250 0.000000 
0.000000 0.875000 0.000000 
0.000000 0.843750 0.000000 
0.000000 0.812500 0.000000 
0.000000 0.781250 0.000000 
0.000000 0.750000 0.000000 
0.000000 0.718750 0.000000 
0.000000 0.687500 0.000000 
0.000000 0.656250 0.000000 
0.000000 0.625000 0.000000 
0.000000 0.593750 0.000000 
0.000000 0.562500 0.000000 
0.000000 0.531250 0.000000 
0.000000 0.500000 0.000000 
0.000000 0.468750 0.000000 
0.000000 0.437500 0.000000 
0.000000 0.406250 0.000000 
0.000000 0.375000 0.000000 
0.000000 0.343750 0.000000 
0.000000 0.312500 0.000000 
0.000000 0.281250 0.000000 
0.000000 0.250000 0.000000 
0.000000 0.218750 0.000000 
0.000000 0.187500 0.000000 
0.000000 0.156250 0.000000 
0.000000 0.125000 0.000000 
0.000000 0.093750 0.000000 
0.000000 0.062500 0.000000 
0.000000 0.031250 0.000000 
0.500000 0.500000 0.000000 
0.750000 0.250000 0.000000 
0.250000 0.250000 0.000000 
0.250000 0.750000 0.000000 
0.750000 0.750000 0.000000 
0.375000 0.125000 0.000000 
0.125000 0.125000 0.000000 
0.625000 0.125000 0.000000 
0.500000 0.250000 0.000000 
0.875000 0.125000 0.000000 
0.625000 0.375000 0.000000 
0.375000 0.375000 0.000000 
0.125000 0.375000 0.000000 
0.250000 0.500000 0.000000 
0.125000 0.625000 0.000000 
0.375000 0.625000 0.000000 
0.125000 0.875000 0.000000 
0.875000 0.375000 0.000000 
0.875000 0.625000 0.000000 
0.750000 0.500000 0.000000 
0.875000 0.875000 0.000000 
0.625000 0.625000 0.000000 
0.625000 0.875000 0.000000 
0.375000 0.875000 0.000000 
0.500000 0.750000 0.000000 
0.187500 0.062500 0.000000 
0.062500 0.062500 0.000000 
0.312500 0.062500 0.000000 
0.250000 0.125000 0.000000 
0.437500 0.062500 0.000000 
0.312500 0.187500 0.000000 
0.187500 0.187500 0.000000 
0.562500 0.062500 0.000000 
0.500000 0.125000 0.000000 
0.562500 0.187500 0.000000 
0.437500 0.187500 0.000000 
0.687500 0.187500 0.000000 
0.625000 0.250000 0.000000 
0.375000 0.250000 0.000000 
0.687500 0.062500 0.000000 
0.812500 0.062500 0.000000 
0.750000 0.125000 0.000000 
0.937500 0.062500 0.000000 
0.812500 0.187500 0.000000 
0.437500 0.312500 0.000000 
0.312500 0.312500 0.000000 
0.562500 0.312500 0.000000 
0.500000 0.375000 0.000000 
0.687500 0.312500 0.000000 
0.562500 0.437500 0.000000 
0.437500 0.437500 0.000000 
0.062500 0.187500 0.000000 
0.125000 0.250000 0.000000 
0.062500 0.312500 0.000000 
0.187500 0.312500 0.000000 
0.062500 0.437500 0.000000 
0.250000 0.375000 0.000000 
0.187500 0.437500 0.000000 
0.187500 0.562500 0.000000 
0.125000 0.500000 0.000000 
0.250000 0.625000 0.000000 
0.187500 0.687500 0.000000 
0.062500 0.562500 0.000000 
0.312500 0.437500 0.000000 
0.375000 0.500000 0.000000 
0.312500 0.562500 0.000000 
0.437500 0.562500 0.000000 
0.312500 0.687500 0.000000 
0.062500 0.687500 0.000000 
0.125000 0.750000 0.000000 
0.062500 0.812500 0.000000 
0.187500 0.812500 0.000000 
0.062500 0.937500 0.000000 
0.937500 0.187500 0.000000 
0.937500 0.312500 0.000000 
0.875000 0.250000 0.000000 
0.937500 0.437500 0.000000 
0.812500 0.312500 0.000000 
0.937500 0.562500 0.000000 
0.875000 0.500000 0.000000 
0.812500 0.562500 0.000000 
0.812500 0.437500 0.000000 
0.812500 0.687500 0.000000 
0.750000 0.625000 0.000000 
0.750000 0.375000 0.000000 
0.937500 0.687500 0.000000 
0.937500 0.812500 0.000000 
0.875000 0.750000 0.000000 
0.937500 0.937500 0.000000 
0.812500 0.812500 0.000000 
0.687500 0.437500 0.000000 
0.687500 0.562500 0.000000 
0.625000 0.500000 0.000000 
0.687500 0.687500 0.000000 
0.562500 0.562500 0.000000 
0.812500 0.937500 0.000000 
0.687500 0.937500 0.000000 
0.750000 0.875000 0.000000 
0.562500 0.937500 0.000000 
0.687500 0.812500 0.000000 
0.437500 0.937500 0.000000 
0.500000 0.875000 0.000000 
0.437500 0.812500 0.000000 
0.562500 0.812500 0.000000 
0.312500 0.812500 0.000000 
0.375000 0.750000 0.000000 
0.625000 0.750000 0.000000 
0.312500 0.937500 0.000000 
0.187500 0.937500 0.000000 
0.250000 0.875000 0.000000 
0.562500 0.687500 0.000000 
0.437500 0.687500 0.000000 
0.500000 0.625000 0.000000 
0.093750 0.031250 0.000000 
0.031250 0.031250 0.000000 
0.156250 0.031250 0.000000 
0.125000 0.062500 0.000000 
0.218750 0.031250 0.000000 
0.156250 0.093750 0.000000 
0.093750 0.093750 0.000000 
0.281250 0.031250 0.000000 
0.250000 0.062500 0.000000 
0.281250 0.093750 0.000000 
0.218750 0.093750 0.000000 
0.343750 0.093750 0.000000 
0.312500 0.125000 0.000000 
0.187500 0.125000 0.000000 
0.343750 0.031250 0.000000 
0.406250 0.031250 0.000000 
0.375000 0.062500 0.000000 
0.468750 0.031250 0.000000 
0.406250 0.093750 0.000000 
0.218750 0.156250 0.000000 
0.156250 0.156250 0.000000 
0.281250 0.156250 0.000000 
0.250000 0.187500 0.000000 
0.343750 0.156250 0.000000 
0.281250 0.218750 0.000000 
0.218750 0.218750 0.000000 
0.531250 0.031250 0.000000 
0.500000 0.062500 0.000000 
0.531250 0.093750 0.000000 
0.468750 0.093750 0.000000 
0.593750 0.093750 0.000000 
0.562500 0.125000 0.000000 
0.437500 0.125000 0.000000 
0.593750 0.156250 0.000000 
0.531250 0.156250 0.000000 
0.500000 0.187500 0.000000 
0.468750 0.156250 0.000000 
0.531250 0.218750 0.000000 
0.468750 0.218750 0.000000 
0.406250 0.156250 0.000000 
0.656250 0.156250 0.000000 
0.625000 0.187500 0.000000 
0.656250 0.218750 0.000000 
0.593750 0.218750 0.000000 
0.718750 0.218750 0.000000 
0.687500 0.250000 0.000000 
0.562500 0.250000 0.000000 
0.375000 0.187500 0.000000 
0.406250 0.218750 0.000000 
0.343750 0.218750 0.000000 
0.437500 0.250000 0.000000 
0.312500 0.250000 0.000000 
0.593750 0.031250 0.000000 
0.656250 0.031250 0.000000 
0.625000 0.062500 0.000000 
0.718750 0.031250 0.000000 
0.656250 0.093750 0.000000 
0.781250 0.031250 0.000000 
0.750000 0.062500 0.000000 
0.781250 0.093750 0.000000 
0.718750 0.093750 0.000000 
0.843750 0.093750 0.000000 
0.812500 0.125000 0.000000 
0.687500 0.125000 0.000000 
0.843750 0.031250 0.000000 
0.906250 0.031250 0.000000 
0.875000 0.062500 0.000000 
0.968750 0.031250 0.000000 
0.906250 0.093750 0.000000 
0.718750 0.156250 0.000000 
0.781250 0.156250 0.000000 
0.750000 0.187500 0.000000 
0.843750 0.156250 0.000000 
0.781250 0.218750 0.000000 
0.343750 0.281250 0.000000 
0.281250 0.281250 0.000000 
0.406250 0.281250 0.000000 
0.375000 0.312500 0.000000 
0.468750 0.281250 0.000000 
0.406250 0.343750 0.000000 
0.343750 0.343750 0.000000 
0.531250 0.281250 0.000000 
0.500000 0.312500 0.000000 
0.531250 0.343750 0.000000 
0.468750 0.343750 0.000000 
0.593750 0.343750 0.000000 
0.562500 0.375000 0.000000 
0.437500 0.375000 0.000000 
0.593750 0.281250 0.000000 
0.656250 0.281250 0.000000 
0.625000 0.312500 0.000000 
0.718750 0.281250 0.000000 
0.656250 0.343750 0.000000 
0.468750 0.406250 0.000000 
0.406250 0.406250 0.000000 
0.531250 0.406250 0.000000 
0.500000 0.437500 0.000000 
0.593750 0.406250 0.000000 
0.531250 0.468750 0.000000 
0.468750 0.468750 0.000000 
0.031250 0.093750 0.000000 
0.062500 0.125000 0.000000 
0.031250 0.156250 0.000000 
0.093750 0.156250 0.000000 
0.031250 0.218750 0.000000 
0.125000 0.187500 0.000000 
0.093750 0.218750 0.000000 
0.093750 0.281250 0.000000 
0.062500 0.250000 0.000000 
0.125000 0.312500 0.000000 
0.093750 0.343750 0.000000 
0.031250 0.281250 0.000000 
[...]
POINT_DATA 2113
SCALARS damage double
LOOKUP_TABLE default
0.000000
0.000000
0.000000
0.000000
0.000000
0.060606
0.189189
0.378378
0.351351
0.189189
0.108108
0.000000
0.000000
0.000000
0.000000
0.000000
0.000000
0.000000
0.000000
0.000000
0.000000
0.000000
0.000000
0.000000
0.027027
0.000000
0.000000
0.000000
0.135135
0.216216
0.351351
0.378378
0.189189
0.060606
0.000000
0.000000
0.000000
0.000000
0.000000
0.000000
0.000000
0.000000
0.000000
0.000000
0.000000
0.000000
0.000000
0.000000
0.000000
0.000000
0.000000
0.000000
0.000000
0.000000
0.000000
0.000000
0.000000
0.000000
0.000000
0.000000
0.000000
0.000000
0.000000
0.000000
0.000000
0.000000
0.000000
0.060606
0.189189
0.378378
0.405405
0.216216
0.081081
0.027027
0.000000
0.000000
0.000000
0.000000
0.000000
0.000000
0.000000
0.000000
0.000000
0.000000
0.000000
0.000000
0.000000
0.000000
0.000000
0.000000
0.162162
0.189189
0.405405
0.378378
0.189189
0.060606
0.000000
0.000000
0.000000
0.000000
0.000000
0.000000
0.000000
0.000000
0.000000
0.000000
0.000000
0.000000
0.000000
0.000000
0.000000
0.000000
0.000000
0.000000
0.000000
0.000000
0.000000
0.000000
0.000000
0.000000
0.000000
0.000000
0.000000
0.000000
0.000000
0.000000
0.000000
0.000000
0.558824
0.088235
0.117647
0.044118
0.088235
0.029412
0.279412
0.000000
0.382353
0.250000
0.000000
0.000000
0.058824
0.000000
0.029412
0.000000
0.264706
0.058824
0.058824
0.000000
0.191176
0.000000
0.014706
0.014706
0.338235
0.262295
0.055556
0.000000
0.102941
0.000000
0.029412
0.382353
0.000000
0.000000
0.147059
0.088235
0.132353
0.161765
0.102941
0.000000
0.229508
0.073529
0.055556
0.441176
0.220588
0.000000
0.250000
0.529412
0.000000
0.176471
0.102941
0.049180
0.117647
0.049180
0.397059
0.000000
0.029412
0.058824
0.058824
0.014706
0.029412
0.058824
0.000000
0.000000
0.000000
0.000000
0.102941
0.000000
0.016393
0.073529
0.049180
0.426471
0.055556
0.049180
0.032787
0.088235
0.000000
0.058824
0.000000
0.014706
0.058824
0.058824
0.058824
0.014706
0.014706
0.032787
0.049180
0.102941
0.055556
0.441176
0.000000
0.000000
0.000000
0.014706
0.176471
0.262295
0.000000
0.132353
0.000000
0.044118
0.000000
0.014706
0.088235
0.073529
0.161765
0.176471
0.058824
0.000000
0.229508
0.088235
0.161765
0.279412
0.544118
0.200000
0.000000
0.380000
0.311475
0.100000
0.455882
0.176471
0.000000
0.000000
0.029412
0.132353
0.014706
0.029412
0.441176
0.000000
0.000000
0.000000
0.000000
0.014706
0.220588
0.455882
0.102941
0.132353
0.044118
0.102941
0.235294
0.000000
0.000000
0.000000
0.000000
0.000000
0.000000
0.000000
0.044118
0.029412
0.029412
0.000000
0.205882
0.205882
0.044118
0.029412
0.220588
0.147059
0.338235
0.176471
0.029412
0.441176
0.132353
0.161765
0.073529
0.147059
0.014706
0.000000
0.000000
0.000000
0.000000
0.000000
0.120000
0.000000
0.132353
0.014706
0.455882
0.485294
0.014706
0.380000
0.200000
0.311475
0.000000
0.176471
0.102941
0.205882
0.176471
0.455882
0.147059
0.029412
0.044118
0.117647
0.058824
0.220588
0.029412
0.000000
0.411765
0.411765
0.426471
0.264706
0.088235
0.220588
0.088235
0.191176
0.044118
0.029412
0.014706
0.000000
0.308824
0.000000
0.411765
0.558824
0.044118
0.426471
0.308824
0.000000
0.049180
0.000000
0.132353
0.000000
0.191176
0.088235
0.073529
0.049180
0.073529
0.044118
0.000000
0.455882
0.426471
0.470588
0.117647
0.500000
0.000000
0.016393
0.000000
0.014706
0.000000
0.058824
0.088235
0.014706
0.044118
0.014706
0.029412
0.102941
0.044118
0.058824
0.044118
0.044118
0.044118
0.014706
0.044118
0.029412
0.058824
0.044118
0.044118
0.029412
0.102941
0.073529
0.000000
0.000000
0.000000
0.000000
0.000000
0.014706
0.000000
0.000000
0.000000
0.000000
0.000000
0.000000
0.000000
0.000000
0.000000
0.000000
0.000000
0.000000
0.102941
0.000000
0.308824
0.000000
0.000000
0.000000
0.000000
0.000000
0.014706
0.000000
0.000000
0.000000
0.014706
0.000000
0.058824
0.044118
0.073529
0.049180
0.161765
0.117647
0.000000
0.500000
0.338235
0.455882
0.220588
0.455882
0.000000
0.049180
0.000000
0.176471
0.000000
0.000000
0.000000
0.049180
0.000000
0.117647
0.000000
0.049180
0.058824
0.073529
0.029412
0.058824
0.161765
0.000000
0.000000
0.000000
0.000000
0.000000
0.455882
0.485294
0.397059
0.117647
0.088235
0.000000
0.000000
0.000000
0.000000
0.000000
0.014706
0.029412
0.058824
0.044118
0.058824
0.044118
0.000000
0.000000
0.088235
0.132353
0.029412
0.044118
0.029412
0.102941
0.058824
0.000000
0.029412
0.029412
0.044118
0.000000
0.029412
0.000000
0.000000
0.000000
0.000000
0.029412
0.000000
0.049180
0.073529
0.058824
0.088235
0.132353
0.058824
0.000000
0.000000
0.049180
0.000000
0.132353
0.500000
0.455882
0.441176
0.455882
0.191176
0.000000
0.000000
0.000000
0.000000
0.000000
0.000000
0.000000
0.000000
0.000000
0.000000
0.000000
0.000000
0.000000
0.000000
0.000000
0.029412
0.000000
0.044118
0.044118
0.176471
0.044118
0.426471
0.200000
0.380000
0.245902
0.120000
0.441176
0.000000
0.049180
0.073529
0.161765
0.000000
0.029412
0.411765
0.000000
0.000000
0.000000
0.000000
0.000000
0.250000
0.132353
0.191176
0.044118
0.073529
0.000000
0.000000
0.014706
0.000000
0.000000
0.014706
0.014706
0.058824
0.014706
0.102941
0.029412
0.279412
0.205882
0.044118
0.058824
0.205882
0.235294
0.191176
0.176471
0.073529
0.323529
0.102941
0.117647
0.088235
0.117647
0.029412
0.000000
0.000000
0.000000
0.000000
0.000000
0.120000
0.016393
0.132353
0.029412
0.455882
0.455882
0.044118
0.380000
0.200000
0.327869
0.088235
0.220588
0.176471
0.044118
0.058824
0.000000
0.264706
0.014706
0.573529
0.382353
0.367647
0.323529
0.073529
0.176471
0.132353
0.235294
0.029412
0.044118
0.411765
0.352941
0.573529
0.000000
0.000000
0.121951
0.068182
0.279070
0.132075
0.000000
0.465116
0.360000
0.392857
0.250000
0.285714
0.442623
0.163934
0.232558
0.139535
0.200000
0.046512
0.178571
0.230769
0.112903
0.353846
0.264706
0.353846
0.338235
0.205882
0.000000
0.000000
0.000000
0.053571
0.000000
0.000000
0.131148
0.000000
0.000000
0.073529
0.076923
0.058824
0.102941
0.215385
0.000000
0.029412
0.014706
0.044118
0.000000
0.044118
0.088235
0.338235
0.250000
0.352941
0.191176
0.441176
0.000000
0.000000
0.000000
0.000000
0.000000
0.000000
0.000000
0.000000
0.000000
0.000000
0.000000
0.000000
0.000000
0.000000
0.000000
0.000000
0.000000
0.000000
0.000000
0.014706
0.000000
0.000000
0.367647
0.294118
0.382353
0.367647
0.117647
0.338235
0.338235
0.102941
0.117647
0.161765
0.161765
0.058824
0.117647
0.264706
0.044118
0.014706
0.014706
0.044118
0.014706
0.220588
0.264706
0.176471
0.176471
0.058824
0.147059
0.117647
0.000000
0.000000
0.000000
0.000000
0.000000
0.000000
0.000000
0.000000
0.000000
0.000000
0.000000
0.000000
0.000000
0.000000
0.000000
0.000000
0.000000
0.000000
0.000000
0.000000
0.000000
0.000000
0.000000
0.000000
0.000000
0.014706
0.014706
0.014706
0.073529
0.000000
0.088235
0.058824
0.014706
0.088235
0.014706
0.044118
0.029412
0.044118
0.044118
0.014706
0.176471
0.073529
0.191176
0.117647
0.279412
0.264706
0.147059
0.000000
0.000000
0.029412
0.073529
0.014706
0.000000
0.014706
0.058824
0.117647
0.058824
0.161765
0.205882
0.161765
0.235294
0.220588
0.279412
0.147059
0.205882
0.220588
0.191176
0.102941
0.029412
0.073529
0.044118
0.029412
0.117647
0.264706
0.352941
0.294118
0.279412
0.455882
0.044118
0.029412
0.058824
0.088235
0.029412
0.147059
0.132353
0.102941
0.102941
0.117647
0.073529
0.029412
0.235294
0.191176
0.147059
0.161765
0.102941
0.029412
0.058824
0.058824
0.044118
0.058824
0.000000
0.000000
0.000000
0.000000
0.000000
0.000000
0.000000
0.000000
0.000000
0.000000
0.000000
0.000000
0.023256
0.000000
0.000000
0.000000
0.000000
0.000000
0.000000
0.000000
0.000000
0.000000
0.046512
0.000000
0.053571
0.000000
0.178571
0.114754
0.000000
0.169231
0.061538
0.029412
0.015385
0.088235
0.044118
0.000000
0.323077
0.352941
0.338235
0.220588
0.308824
0.441176
0.161765
0.000000
0.000000
0.000000
0.058824
0.014706
0.162791
0.232558
0.200000
0.465116
0.285714
0.279070
0.380000
0.250000
0.392857
0.132075
0.163934
0.459016
0.121951
0.000000
0.068182
0.000000
0.000000
0.338462
0.230769
0.264706
0.112903
0.205882
0.000000
0.044118
0.058824
0.102941
0.088235
0.132353
0.132353
0.191176
0.176471
0.308824
0.308824
0.147059
0.235294
0.338235
0.323529
0.294118
0.250000
0.205882
0.235294
0.235294
0.220588
0.117647
0.000000
0.073529
0.058824
0.000000
0.058824
0.014706
0.000000
0.058824
0.088235
0.073529
0.044118
0.088235
0.073529
0.000000
0.132353
0.161765
0.147059
0.220588
0.235294
0.000000
0.000000
0.058824
0.000000
0.102941
0.000000
0.000000
0.500000
0.323529
0.426471
0.338235
0.338235
0.691176
0.323529
0.338235
0.617647
0.544118
0.411765
0.500000
0.367647
0.250000
0.161765
0.264706
0.147059
0.367647
0.029412
0.073529
0.411765
0.132353
0.176471
0.044118
0.294118
0.000000
0.338235
0.308824
0.294118
0.176471
0.220588
0.117647
0.102941
0.029412
0.102941
0.014706
0.000000
0.102941
0.029412
0.000000
0.014706
0.029412
0.014706
0.044118
0.000000
0.014706
0.000000
0.000000
0.044118
0.000000
0.161765
0.102941
0.411765
0.176471
0.044118
0.500000
0.544118
0.558824
0.411765
0.308824
0.411765
0.308824
0.323529
0.132353
0.191176
0.000000
0.102941
0.426471
0.176471
0.558824
0.544118
0.308824
0.558824
0.426471
0.000000
0.000000
0.000000
0.000000
0.000000
0.049180
0.000000
0.000000
0.000000
0.049180
0.000000
0.000000
0.107692
0.161765
0.107692
0.205882
0.092308
0.000000
0.000000
0.000000
0.000000
0.000000
0.220588
0.147059
0.117647
0.102941
0.176471
0.102941
0.076923
0.088235
0.073529
0.061538
0.061538
0.061538
0.049180
0.049180
0.088235
0.073529
0.058824
0.058824
0.058824
0.058824
0.046154
0.000000
0.000000
0.000000
0.000000
0.000000
0.250000
0.455882
0.205882
0.220588
0.147059
0.411765
0.161765
0.073529
0.455882
0.470588
0.088235
0.117647
0.264706
0.117647
0.132353
0.132353
0.102941
0.088235
0.485294
0.073529
0.102941
0.058824
0.000000
0.000000
0.000000
0.000000
0.000000
0.032787
0.000000
0.000000
0.000000
0.000000
0.000000
0.000000
0.030769
0.044118
0.015385
0.044118
0.000000
0.000000
0.000000
0.000000
0.000000
0.000000
0.088235
0.073529
0.073529
0.102941
0.058824
0.044118
0.102941
0.014706
0.029412
0.029412
0.058824
0.044118
0.029412
0.058824
0.014706
0.014706
0.014706
0.029412
0.000000
0.000000
0.044118
0.073529
0.441176
0.147059
0.073529
0.058824
0.014706
0.000000
0.029412
0.029412
0.029412
0.058824
0.073529
0.235294
0.088235
0.044118
0.102941
0.029412
0.029412
0.088235
0.088235
0.044118
0.029412
0.029412
0.029412
0.014706
0.014706
0.058824
0.029412
0.044118
0.014706
0.058824
0.014706
0.029412
0.029412
0.029412
0.029412
0.029412
0.058824
0.044118
0.044118
0.044118
0.044118
0.044118
0.044118
0.044118
0.029412
0.044118
0.058824
0.044118
0.058824
0.073529
0.073529
0.441176
0.132353
0.058824
0.455882
0.044118
0.029412
0.000000
0.000000
0.000000
0.000000
0.000000
0.000000
0.000000
0.000000
0.000000
0.000000
0.000000
0.000000
0.000000
0.000000
0.000000
0.000000
0.000000
0.000000
0.000000
0.000000
0.000000
0.044118
0.029412
0.029412
0.000000
0.029412
0.000000
0.000000
0.000000
0.000000
0.000000
0.000000
0.014706
0.000000
0.000000
0.000000
0.000000
0.000000
0.014706
0.000000
0.000000
0.000000
0.000000
0.000000
0.000000
0.000000
0.000000
0.000000
0.000000
0.000000
0.000000
0.000000
0.000000
0.000000
0.000000
0.000000
0.000000
0.000000
0.000000
0.000000
0.000000
0.000000
0.000000
0.000000
0.000000
0.000000
0.000000
0.000000
0.000000
0.000000
0.000000
0.000000
0.044118
0.000000
0.102941
0.044118
0.044118
0.000000
0.102941
0.044118
0.000000
0.176471
0.308824
0.176471
0.426471
0.176471
0.000000
0.000000
0.000000
0.044118
0.000000
0.000000
0.000000
0.029412
0.000000
0.014706
0.000000
0.000000
0.000000
0.000000
0.000000
0.000000
0.029412
0.000000
0.000000
0.000000
0.000000
0.000000
0.014706
0.000000
0.029412
0.000000
0.029412
0.000000
0.000000
0.000000
0.000000
0.000000
0.000000
0.000000
0.000000
0.000000
0.000000
0.000000
0.000000
0.000000
0.000000
0.000000
0.014706
0.015385
0.000000
0.000000
0.000000
0.000000
0.000000
0.058824
0.044118
0.058824
0.029412
0.058824
0.058824
0.030769
0.073529
0.058824
0.061538
0.046154
0.061538
0.049180
0.032787
0.102941
0.102941
0.161765
0.088235
0.235294
0.205882
0.076923
0.000000
0.000000
0.000000
0.000000
0.000000
0.058824
0.117647
0.058824
0.117647
0.073529
0.058824
0.117647
0.176471
0.485294
0.382353
0.250000
0.132353
0.102941
0.088235
0.205882
0.117647
0.220588
0.176471
0.455882
0.250000
0.279412
0.294118
0.000000
0.000000
0.000000
0.000000
0.000000
0.049180
0.000000
0.000000
0.000000
0.049180
0.000000
0.000000
0.092308
0.147059
0.107692
0.205882
0.112903
0.000000
0.000000
0.000000
0.000000
0.000000
0.000000
0.000000
0.000000
0.000000
0.000000
0.000000
0.000000
0.000000
0.000000
0.000000
0.049180
0.049180
0.000000
0.000000
0.000000
0.000000
0.000000
0.107692
0.092308
0.147059
0.076923
0.191176
0.000000
0.000000
0.000000
0.000000
0.000000
0.049180
0.049180
0.046154
0.061538
0.073529
0.061538
0.073529
0.088235
0.061538
0.030769
0.044118
0.058824
0.058824
0.044118
0.058824
0.073529
0.088235
0.088235
0.117647
0.102941
0.220588
0.000000
0.000000
0.000000
0.000000
0.000000
0.000000
0.000000
0.000000
0.000000
0.000000
0.000000
0.016393
0.000000
0.000000
0.000000
0.000000
0.000000
0.015385
0.000000
0.014706
0.000000
0.029412
0.235294
0.117647
0.455882
0.088235
0.176471
0.088235
0.455882
0.088235
0.132353
0.058824
0.176471
0.411765
0.073529
0.058824
0.485294
0.058824
0.132353
0.132353
0.088235
0.088235
0.088235
0.073529
0.000000
0.000000
0.000000
0.000000
0.000000
0.000000
0.000000
0.000000
0.000000
0.000000
0.000000
0.000000
0.000000
0.000000
0.000000
0.000000
0.000000
0.014706
0.029412
0.044118
0.014706
0.000000
0.000000
0.014706
0.014706
0.044118
0.044118
0.029412
0.058824
0.029412
0.102941
0.073529
0.029412
0.058824
0.073529
0.073529
0.044118
0.058824
0.058824
0.029412
0.014706
0.014706
0.000000
0.014706
0.000000
0.000000
0.014706
0.029412
0.044118
0.029412
0.058824
0.044118
0.058824
0.102941
0.426471
0.117647
0.147059
0.044118
0.058824
0.044118
0.029412
0.029412
0.044118
0.029412
0.029412
0.029412
0.102941
0.088235
0.088235
0.058824
0.073529
0.058824
0.029412
0.014706
0.029412
0.000000
0.014706
0.000000
0.102941
0.117647
0.441176
0.044118
0.044118
0.029412
0.029412
0.029412
0.029412
0.044118
0.029412
0.044118
0.014706
0.000000
0.014706
0.000000
0.014706
0.058824
0.044118
0.073529
0.014706
0.044118
0.000000
0.000000
0.000000
0.000000
0.000000
0.000000
0.000000
0.000000
0.000000
0.000000
0.016393
0.000000
0.000000
0.000000
0.000000
0.000000
0.000000
0.000000
0.015385
0.014706
0.030769
0.044118
0.000000
0.000000
0.000000
0.000000
0.000000
0.049180
0.049180
0.061538
0.061538
0.073529
0.061538
0.088235
0.073529
0.046154
0.061538
0.073529
0.088235
0.088235
0.117647
0.147059
0.132353
0.044118
0.058824
0.058824
0.073529
0.058824
0.000000
0.000000
0.000000
0.000000
0.000000
0.000000
0.000000
0.000000
0.000000
0.000000
0.049180
0.049180
0.000000
0.000000
0.000000
0.000000
0.000000
0.076923
0.092308
0.102941
0.112903
0.147059
0.058824
0.073529
0.514706
0.102941
0.102941
0.132353
0.470588
0.132353
0.088235
0.205882
0.470588
0.426471
0.191176
0.220588
0.455882
0.220588
0.250000
0.088235
0.161765
0.102941
0.264706
0.132353
0.014706
0.014706
0.000000
0.014706
0.000000
0.014706
0.000000
0.000000
0.000000
0.000000
0.000000
0.000000
0.000000
0.000000
0.000000
0.000000
0.000000
0.000000
0.000000
0.000000
0.000000
0.000000
0.000000
0.000000
0.000000
0.000000
0.000000
0.000000
0.000000
0.000000
0.000000
0.000000
0.000000
0.000000
0.000000
0.000000
0.000000
0.000000
0.000000
0.000000
0.000000
0.000000
0.000000
0.000000
0.000000
0.000000
0.000000
0.000000
0.000000
0.000000
0.000000
0.014706
0.000000
0.014706
0.000000
0.000000
0.000000
0.000000
0.000000
0.000000
0.029412
0.029412
0.014706
0.058824
0.000000
0.000000
0.000000
0.000000
0.000000
0.000000
0.000000
0.000000
0.044118
0.000000
0.102941
0.000000
0.044118
0.102941
0.102941
0.102941
0.176471
0.176471
0.000000
0.000000
0.044118
0.000000
0.102941
0.308824
0.308824
0.426471
0.308824
0.558824
0.000000
0.121951
0.068182
0.279070
0.132075
0.441860
0.360000
0.321429
0.250000
0.339286
0.442623
0.180328
0.255814
0.139535
0.200000
0.069767
0.196429
0.169231
0.276923
0.205882
0.338462
0.250000
0.000000
0.000000
0.017857
0.053571
0.000000
0.032787
0.163934
0.030769
0.046154
0.102941
0.107692
0.102941
0.132353
0.230769
0.015385
0.014706
0.014706
0.044118
0.014706
0.014706
0.117647
0.323529
0.367647
0.367647
0.264706
0.441176
0.000000
0.000000
0.000000
0.000000
0.000000
0.000000
0.000000
0.000000
0.000000
0.000000
0.000000
0.000000
0.000000
0.000000
0.000000
0.000000
0.000000
0.000000
0.000000
0.000000
0.000000
0.000000
0.294118
0.338235
0.455882
0.220588
0.308824
0.191176
0.176471
0.176471
0.220588
0.088235
0.132353
0.308824
0.088235
0.014706
0.014706
0.029412
0.058824
0.235294
0.176471
0.161765
0.058824
0.073529
0.000000
0.000000
0.000000
0.000000
0.000000
0.000000
0.000000
0.000000
0.000000
0.029412
0.000000
0.014706
0.000000
0.000000
0.000000
0.014706
0.000000
0.014706
0.014706
0.014706
0.029412
0.000000
0.014706
0.014706
0.014706
0.014706
0.029412
0.044118
0.014706
0.029412
0.102941
0.044118
0.029412
0.058824
0.014706
0.014706
0.014706
0.132353
0.088235
0.014706
0.191176
0.205882
0.279412
0.161765
0.352941
0.235294
0.147059
0.014706
0.029412
0.014706
0.058824
0.014706
0.044118
0.044118
0.088235
0.088235
0.058824
0.176471
0.117647
0.264706
0.205882
0.220588
0.161765
0.191176
0.323529
0.191176
0.250000
0.132353
0.117647
0.147059
0.117647
0.058824
0.117647
0.250000
0.367647
0.352941
0.294118
0.411765
0.073529
0.073529
0.058824
0.088235
0.088235
0.161765
0.117647
0.117647
0.132353
0.058824
0.088235
0.088235
0.161765
0.176471
0.088235
0.235294
0.058824
0.029412
0.058824
0.014706
0.058824
0.044118
0.000000
0.000000
0.000000
0.000000
0.000000
0.000000
0.000000
0.000000
0.000000
0.000000
0.000000
0.000000
0.000000
0.000000
0.000000
0.000000
0.000000
0.015385
0.015385
0.000000
0.000000
0.029412
0.046512
0.000000
0.053571
0.000000
0.178571
0.131148
0.000000
0.169231
0.046154
0.029412
0.015385
0.058824
0.058824
0.015385
0.323077
0.235294
0.382353
0.220588
0.294118
0.441176
0.176471
0.014706
0.014706
0.014706
0.073529
0.014706
0.186047
0.232558
0.220000
0.465116
0.285714
0.279070
0.380000
0.267857
0.410714
0.132075
0.196721
0.442623
0.121951
0.000000
0.068182
0.338462
0.246154
0.264706
0.029412
0.044118
0.029412
0.117647
0.073529
0.132353
0.147059
0.147059
0.176471
0.367647
0.294118
0.191176
0.308824
0.382353
0.308824
0.264706
0.250000
0.250000
0.014706
0.029412
0.000000
0.029412
0.014706
0.073529
0.044118
0.058824
0.014706
0.073529
0.058824
0.014706
0.117647
0.161765
0.117647
0.279412
0.220588
0.000000
0.029412
0.000000
0.102941
0.000000
0.455882
0.338235
0.382353
0.294118
0.397059
0.705882
0.294118
0.323529
0.544118
0.573529
0.426471
0.426471
0.455882
0.220588
0.176471
0.220588
0.117647
0.308824
0.029412
0.044118
0.382353
0.147059
0.220588
0.073529
0.367647
0.029412
0.382353
0.279412
0.323529
0.132353
0.220588
0.088235
0.073529
0.014706
0.102941
0.000000
0.000000
0.176471
0.058824
0.029412
0.014706
0.058824
0.000000
0.014706
0.088235
0.279412
0.161765
0.485294
0.294118
0.441176
0.558824
0.441176
0.544118
0.205882
0.323529
0.411765
0.220588
0.088235
0.132353
0.558824
0.426471
0.558824
VECTORS displacements double 
-0.002495 0.000000 0.000000 
0.002495 0.000000 0.000000 
0.002495 0.000000 0.000000 
-0.002495 0.000000 0.000000 
-0.002495 0.000000 0.000000 
-0.002495 0.000000 0.000000 
-0.002495 0.000000 0.000000 
-0.002495 0.000000 0.000000 
0.001703 0.004292 -0.000110 
-0.000439 0.003645 -0.000063 
-0.000315 0.003253 -0.000232 
-0.000303 0.003019 0.000021 
-0.000290 0.002957 -0.000209 
-0.000245 0.002903 -0.000255 
-0.000201 0.002878 -0.000045 
-0.000182 0.002893 -0.000089 
-0.000175 0.002931 -0.000243 
-0.000147 0.002988 0.000035 
-0.000146 0.003031 0.000169 
-0.000146 0.003077 0.000264 
-0.000124 0.003156 0.000099 
-0.000108 0.003194 0.000036 
-0.000099 0.003271 0.000017 
-0.000110 0.003330 0.000227 
-0.000121 0.003393 -0.000096 
-0.000124 0.003419 -0.000177 
-0.000077 0.003509 0.000001 
-0.000054 0.003586 -0.000083 
-0.000023 0.003684 0.000095 
0.000043 0.003940 -0.000189 