# vtk DataFile Version 2.0
Solution time step = 499 
ASCII

DATASET UNSTRUCTURED_GRID
POINTS 2113 double
0.000000 0.000000 0.000000 
1.000000 0.000000 0.000000 
1.000000 1.000000 0.000000 
0.000000 1.000000 0.000000 
0.031250 0.000000 0.000000 
0.062500 0.000000 0.000000 
0.093750 0.000000 0.000000 
0.125000 0.000000 0.000000 
0.156250 0.000000 0.000000 
0.187500 0.000000 0.000000 
0.218750 0.000000 0.000000 
0.250000 0.000000 0.000000 
0.281250 0.000000 0.000000 
0.312500 0.000000 0.000000 
0.343750 0.000000 0.000000 
0.375000 0.000000 0.000000 
0.406250 0.000000 0.000000 
0.437500 0.000000 0.000000 
0.468750 0.000000 0.000000 
0.500000 0.000000 0.000000 
0.531250 0.000000 0.000000 
0.562500 0.000000 0.000000 
0.593750 0.000000 0.000000 
0.625000 0.000000 0.000000 
0.656250 0.000000 0.000000 
0.687500 0.000000 0.000000 
0.718750 0.000000 0.000000 
0.750000 0.000000 0.000000 
0.781250 0.000000 0.000000 
0.812500 0.000000 0.000000 
0.843750 0.000000 0.000000 
0.875000 0.000000 0.000000 
0.906250 0.000000 0.000000 
0.937500 0.000000 0.000000 
0.968750 0.000000 0.000000 
1.000000 0.031250 0.000000 
1.000000 0.062500 0.000000 
1.000000 0.093750 0.000000 
1.000000 0.125000 0.000000 
1.000000 0.156250 0.000000 
1.000000 0.187500 0.000000 
1.000000 0.218750 0.000000 
1.000000 0.250000 0.000000 
1.000000 0.281250 0.000000 
1.000000 0.312500 0.000000 
1.000000 0.343750 0.000000 
1.000000 0.375000 0.000000 
1.000000 0.406250 0.000000 
1.000000 0.437500 0.000000 
1.000000 0.468750 0.000000 
1.000000 0.500000 0.000000 
1.000000 0.531250 0.000000 
1.000000 0.562500 0.000000 
1.000000 0.593750 0.000000 
1.000000 0.625000 0.000000 
1.000000 0.656250 0.000000 
1.000000 0.687500 0.000000 
1.000000 0.718750 0.000000 
1.000000 0.750000 0.000000 
1.000000 0.781250 0.000000 
1.000000 0.812500 0.000000 
1.000000 0.843750 0.000000 
1.000000 0.875000 0.000000 
1.000000 0.906250 0.000000 
1.000000 0.937500 0.000000 
1.000000 0.968750 0.000000 
0.968750 1.000000 0.000000 
0.937500 1.000000 0.000000 
0.906250 1.000000 0.000000 
0.875000 1.000000 0.000000 
0.843750 1.000000 0.000000 
0.812500 1.000000 0.000000 
0.781250 1.000000 0.000000 
0.750000 1.000000 0.000000 
0.718750 1.000000 0.000000 
0.687500 1.000000 0.000000 
0.656250 1.000000 0.000000 
0.625000 1.000000 0.000000 
0.593750 1.000000 0.000000 
0.562500 1.000000 0.000000 
0.531250 1.000000 0.000000 
0.500000 1.000000 0.000000 
0.468750 1.000000 0.000000 
0.437500 1.000000 0.000000 
0.406250 1.000000 0.000000 
0.375000 1.000000 0.000000 
0.343750 1.000000 0.000000 
0.312500 1.000000 0.000000 
0.281250 1.000000 0.000000 
0.250000 1.000000 0.000000 
0.218750 1.000000 0.000000 
0.187500 1.000000 0.000000 
0.156250 1.000000 0.000000 
0.125000 1.000000 0.000000 
0.093750 1.000000 0.000000 
0.062500 1.000000 0.000000 
0.031250 1.000000 0.000000 
0.000000 0.968750 0.000000 
0.000000 0.937500 0.000000 
0.000000 0.906250 0.000000 
0.000000 0.875000 0.000000 
0.000000 0.843750 0.000000 
0.000000 0.812500 0.000000 
0.000000 0.781250 0.000000 
0.000000 0.750000 0.000000 
0.000000 0.718750 0.000000 
0.000000 0.687500 0.000000 
0.000000 0.656250 0.000000 
0.000000 0.625000 0.000000 
0.000000 0.593750 0.000000 
0.000000 0.562500 0.000000 
0.000000 0.531250 0.000000 
0.000000 0.500000 0.000000 
0.000000 0.468750 0.000000 
0.000000 0.437500 0.000000 
0.000000 0.406250 0.000000 
0.000000 0.375000 0.000000 
0.000000 0.343750 0.000000 
0.000000 0.312500 0.000000 
0.000000 0.281250 0.000000 
0.000000 0.250000 0.000000 
0.000000 0.218750 0.000000 
0.000000 0.187500 0.000000 
0.000000 0.156250 0.000000 
0.000000 0.125000 0.000000 
0.000000 0.093750 0.000000 
0.000000 0.062500 0.000000 
0.000000 0.031250 0.000000 
0.500000 0.500000 0.000000 
0.750000 0.250000 0.000000 
0.250000 0.250000 0.000000 
0.250000 0.750000 0.000000 
0.750000 0.750000 0.000000 
0.375000 0.125000 0.000000 
0.125000 0.125000 0.000000 
0.625000 0.125000 0.000000 
0.500000 0.250000 0.000000 
0.875000 0.125000 0.000000 
0.625000 0.375000 0.000000 
0.375000 0.375000 0.000000 
0.125000 0.375000 0.000000 
0.250000 0.500000 0.000000 
0.125000 0.625000 0.000000 
0.375000 0.625000 0.000000 
0.125000 0.875000 0.000000 
0.875000 0.375000 0.000000 
0.875000 0.625000 0.000000 
0.750000 0.500000 0.000000 
0.875000 0.875000 0.000000 
0.625000 0.625000 0.000000 
0.625000 0.875000 0.000000 
0.375000 0.875000 0.000000 
0.500000 0.750000 0.000000 
0.187500 0.062500 0.000000 
0.062500 0.062500 0.000000 
0.312500 0.062500 0.000000 
0.250000 0.125000 0.000000 
0.437500 0.062500 0.000000 
0.312500 0.187500 0.000000 
0.187500 0.187500 0.000000 
0.562500 0.062500 0.000000 
0.500000 0.125000 0.000000 
0.562500 0.187500 0.000000 
0.437500 0.187500 0.000000 
0.687500 0.187500 0.000000 
0.625000 0.250000 0.000000 
0.375000 0.250000 0.000000 
0.687500 0.062500 0.000000 
0.812500 0.062500 0.000000 
0.750000 0.125000 0.000000 
0.937500 0.062500 0.000000 
0.812500 0.187500 0.000000 
0.437500 0.312500 0.000000 
0.312500 0.312500 0.000000 
0.562500 0.312500 0.000000 
0.500000 0.375000 0.000000 
0.687500 0.312500 0.000000 
0.562500 0.437500 0.000000 
0.437500 0.437500 0.000000 
0.062500 0.187500 0.000000 
0.125000 0.250000 0.000000 
0.062500 0.312500 0.000000 
0.187500 0.312500 0.000000 
0.062500 0.437500 0.000000 
0.250000 0.375000 0.000000 
0.187500 0.437500 0.000000 
0.187500 0.562500 0.000000 
0.125000 0.500000 0.000000 
0.250000 0.625000 0.000000 
0.187500 0.687500 0.000000 
0.062500 0.562500 0.000000 
0.312500 0.437500 0.000000 
0.375000 0.500000 0.000000 
0.312500 0.562500 0.000000 
0.437500 0.562500 0.000000 
0.312500 0.687500 0.000000 
0.062500 0.687500 0.000000 
0.125000 0.750000 0.000000 
0.062500 0.812500 0.000000 
0.187500 0.812500 0.000000 
0.062500 0.937500 0.000000 
0.937500 0.187500 0.000000 
0.937500 0.312500 0.000000 
0.875000 0.250000 0.000000 
0.937500 0.437500 0.000000 
0.812500 0.312500 0.000000 
0.937500 0.562500 0.000000 
0.875000 0.500000 0.000000 
0.812500 0.562500 0.000000 
0.812500 0.437500 0.000000 
0.812500 0.687500 0.000000 
0.750000 0.625000 0.000000 
0.750000 0.375000 0.000000 
0.937500 0.687500 0.000000 
0.937500 0.812500 0.000000 
0.875000 0.750000 0.000000 
0.937500 0.937500 0.000000 
0.812500 0.812500 0.000000 
0.687500 0.437500 0.000000 
0.687500 0.562500 0.000000 
0.625000 0.500000 0.000000 
0.687500 0.687500 0.000000 
0.562500 0.562500 0.000000 
0.812500 0.937500 0.000000 
0.687500 0.937500 0.000000 
0.750000 0.875000 0.000000 
0.562500 0.937500 0.000000 
0.687500 0.812500 0.000000 
0.437500 0.937500 0.000000 
0.500000 0.875000 0.000000 
0.437500 0.812500 0.000000 
0.562500 0.812500 0.000000 
0.312500 0.812500 0.000000 
0.375000 0.750000 0.000000 
0.625000 0.750000 0.000000 
0.312500 0.937500 0.000000 
0.187500 0.937500 0.000000 
0.250000 0.875000 0.000000 
0.562500 0.687500 0.000000 
0.437500 0.687500 0.000000 
0.500000 0.625000 0.000000 
0.093750 0.031250 0.000000 
0.031250 0.031250 0.000000 
0.156250 0.031250 0.000000 
0.125000 0.062500 0.000000 
0.218750 0.031250 0.000000 
0.156250 0.093750 0.000000 
0.093750 0.093750 0.000000 
0.281250 0.031250 0.000000 
0.250000 0.062500 0.000000 
0.281250 0.093750 0.000000 
0.218750 0.093750 0.000000 
0.343750 0.093750 0.000000 
0.312500 0.125000 0.000000 
0.187500 0.125000 0.000000 
0.343750 0.031250 0.000000 
0.406250 0.031250 0.000000 
0.375000 0.062500 0.000000 
0.468750 0.031250 0.000000 
0.406250 0.093750 0.000000 
0.218750 0.156250 0.000000 
0.156250 0.156250 0.000000 
0.281250 0.156250 0.000000 
0.250000 0.187500 0.000000 
0.343750 0.156250 0.000000 
0.281250 0.218750 0.000000 
0.218750 0.218750 0.000000 
0.531250 0.031250 0.000000 
0.500000 0.062500 0.000000 
0.531250 0.093750 0.000000 
0.468750 0.093750 0.000000 
0.593750 0.093750 0.000000 
0.562500 0.125000 0.000000 
0.437500 0.125000 0.000000 
0.593750 0.156250 0.000000 
0.531250 0.156250 0.000000 
0.500000 0.187500 0.000000 
0.468750 0.156250 0.000000 
0.531250 0.218750 0.000000 
0.468750 0.218750 0.000000 
0.406250 0.156250 0.000000 
0.656250 0.156250 0.000000 
0.625000 0.187500 0.000000 
0.656250 0.218750 0.000000 
0.593750 0.218750 0.000000 
0.718750 0.218750 0.000000 
0.687500 0.250000 0.000000 
0.562500 0.250000 0.000000 
0.375000 0.187500 0.000000 
0.406250 0.218750 0.000000 
0.343750 0.218750 0.000000 
0.437500 0.250000 0.000000 
0.312500 0.250000 0.000000 
0.593750 0.031250 0.000000 
0.656250 0.031250 0.000000 
0.625000 0.062500 0.000000 
0.718750 0.031250 0.000000 
0.656250 0.093750 0.000000 
0.781250 0.031250 0.000000 
0.750000 0.062500 0.000000 
0.781250 0.093750 0.000000 
0.718750 0.093750 0.000000 
0.843750 0.093750 0.000000 
0.812500 0.125000 0.000000 
0.687500 0.125000 0.000000 
0.843750 0.031250 0.000000 
0.906250 0.031250 0.000000 
0.875000 0.062500 0.000000 
0.968750 0.031250 0.000000 
0.906250 0.093750 0.000000 
0.718750 0.156250 0.000000 
0.781250 0.156250 0.000000 
0.750000 0.187500 0.000000 
0.843750 0.156250 0.000000 
0.781250 0.218750 0.000000 
0.343750 0.281250 0.000000 
0.281250 0.281250 0.000000 
0.406250 0.281250 0.000000 
0.375000 0.312500 0.000000 
0.468750 0.281250 0.000000 
0.406250 0.343750 0.000000 
0.343750 0.343750 0.000000 
0.531250 0.281250 0.000000 
0.500000 0.312500 0.000000 
0.531250 0.343750 0.000000 
0.468750 0.343750 0.000000 
0.593750 0.343750 0.000000 
0.562500 0.375000 0.000000 
0.437500 0.375000 0.000000 
0.593750 0.281250 0.000000 
0.656250 0.281250 0.000000 
0.625000 0.312500 0.000000 
0.718750 0.281250 0.000000 
0.656250 0.343750 0.000000 
0.468750 0.406250 0.000000 
0.406250 0.406250 0.000000 
0.531250 0.406250 0.000000 
0.500000 0.437500 0.000000 
0.593750 0.406250 0.000000 
0.531250 0.468750 0.000000 
0.468750 0.468750 0.000000 
0.031250 0.093750 0.000000 
0.062500 0.125000 0.000000 
0.031250 0.156250 0.000000 
0.093750 0.156250 0.000000 
0.031250 0.218750 0.000000 
0.125000 0.187500 0.000000 
0.093750 0.218750 0.000000 
0.093750 0.281250 0.000000 
0.062500 0.250000 0.000000 
0.125000 0.312500 0.000000 
0.093750 0.343750 0.000000 
0.031250 0.281250 0.000000 
[...]
POINT_DATA 2113
SCALARS damage double
LOOKUP_TABLE default
0.000000
0.000000
0.000000
0.000000
0.000000
0.060606
0.189189
0.378378
0.351351
0.189189
0.108108
0.000000
0.000000
0.000000
0.000000
0.000000
0.000000
0.000000
0.000000
0.000000
0.000000
0.000000
0.000000
0.000000
0.000000
0.000000
0.000000
0.000000
0.081081
0.135135
0.405405
0.378378
0.189189
0.060606
0.000000
0.000000
0.000000
0.000000
0.000000
0.000000
0.000000
0.000000
0.000000
0.000000
0.000000
0.000000
0.000000
0.000000
0.000000
0.000000
0.000000
0.000000
0.000000
0.000000
0.000000
0.000000
0.000000
0.000000
0.000000
0.000000
0.000000
0.000000
0.000000
0.000000
0.000000
0.000000
0.000000
0.060606
0.189189
0.378378
0.351351
0.135135
0.108108
0.000000
0.000000
0.000000
0.000000
0.000000
0.000000
0.000000
0.000000
0.000000
0.000000
0.000000
0.000000
0.000000
0.000000
0.000000
0.027027
0.000000
0.108108
0.189189
0.405405
0.378378
0.189189
0.060606
0.000000
0.000000
0.000000
0.000000
0.000000
0.000000
0.000000
0.000000
0.000000
0.000000
0.000000
0.000000
0.000000
0.000000
0.000000
0.000000
0.000000
0.000000
0.000000
0.000000
0.000000
0.000000
0.000000
0.000000
0.000000
0.000000
0.000000
0.000000
0.000000
0.000000
0.000000
0.000000
0.558824
0.088235
0.029412
0.029412
0.117647
0.073529
0.205882
0.000000
0.235294
0.205882
0.000000
0.000000
0.058824
0.000000
0.058824
0.000000
0.205882
0.058824
0.058824
0.000000
0.205882
0.000000
0.000000
0.044118
0.176471
0.311475
0.055556
0.000000
0.132353
0.000000
0.176471
0.367647
0.000000
0.029412
0.058824
0.147059
0.029412
0.029412
0.235294
0.000000
0.213115
0.132353
0.055556
0.441176
0.308824
0.000000
0.102941
0.588235
0.014706
0.176471
0.102941
0.049180
0.088235
0.032787
0.044118
0.000000
0.000000
0.058824
0.058824
0.014706
0.000000
0.029412
0.000000
0.000000
0.000000
0.000000
0.102941
0.000000
0.032787
0.088235
0.049180
0.426471
0.055556
0.049180
0.032787
0.088235
0.000000
0.058824
0.000000
0.014706
0.044118
0.058824
0.058824
0.000000
0.014706
0.049180
0.049180
0.088235
0.055556
0.441176
0.000000
0.000000
0.000000
0.000000
0.176471
0.213115
0.000000
0.088235
0.000000
0.044118
0.000000
0.000000
0.102941
0.029412
0.250000
0.264706
0.014706
0.000000
0.245902
0.117647
0.088235
0.279412
0.544118
0.200000
0.000000
0.400000
0.278689
0.120000
0.455882
0.147059
0.000000
0.032787
0.073529
0.176471
0.000000
0.102941
0.264706
0.000000
0.000000
0.000000
0.000000
0.000000
0.235294
0.455882
0.250000
0.102941
0.191176
0.058824
0.073529
0.000000
0.000000
0.000000
0.000000
0.000000
0.014706
0.014706
0.029412
0.014706
0.058824
0.029412
0.088235
0.176471
0.117647
0.044118
0.088235
0.058824
0.088235
0.088235
0.029412
0.102941
0.308824
0.294118
0.191176
0.279412
0.058824
0.000000
0.000000
0.000000
0.000000
0.000000
0.100000
0.016393
0.147059
0.044118
0.455882
0.338235
0.014706
0.400000
0.200000
0.278689
0.000000
0.147059
0.117647
0.250000
0.176471
0.455882
0.147059
0.058824
0.000000
0.250000
0.058824
0.352941
0.102941
0.000000
0.176471
0.367647
0.294118
0.411765
0.029412
0.132353
0.161765
0.073529
0.014706
0.000000
0.044118
0.014706
0.338235
0.000000
0.397059
0.573529
0.044118
0.426471
0.308824
0.000000
0.049180
0.000000
0.088235
0.000000
0.117647
0.073529
0.058824
0.049180
0.058824
0.029412
0.000000
0.455882
0.058824
0.455882
0.014706
0.102941
0.000000
0.000000
0.000000
0.000000
0.000000
0.000000
0.014706
0.014706
0.044118
0.000000
0.000000
0.044118
0.000000
0.058824
0.044118
0.044118
0.044118
0.014706
0.014706
0.000000
0.014706
0.014706
0.044118
0.000000
0.044118
0.132353
0.000000
0.000000
0.000000
0.000000
0.000000
0.000000
0.000000
0.000000
0.000000
0.000000
0.000000
0.000000
0.000000
0.000000
0.000000
0.000000
0.000000
0.000000
0.102941
0.000000
0.323529
0.000000
0.000000
0.000000
0.000000
0.000000
0.000000
0.000000
0.000000
0.000000
0.044118
0.000000
0.058824
0.058824
0.073529
0.049180
0.161765
0.102941
0.000000
0.455882
0.058824
0.455882
0.044118
0.441176
0.000000
0.049180
0.000000
0.161765
0.000000
0.000000
0.000000
0.049180
0.000000
0.088235
0.000000
0.049180
0.058824
0.073529
0.044118
0.058824
0.147059
0.000000
0.000000
0.000000
0.000000
0.000000
0.455882
0.485294
0.426471
0.161765
0.102941
0.000000
0.000000
0.000000
0.000000
0.014706
0.029412
0.014706
0.073529
0.044118
0.058824
0.044118
0.000000
0.000000
0.058824
0.485294
0.029412
0.044118
0.000000
0.073529
0.029412
0.000000
0.029412
0.000000
0.014706
0.000000
0.058824
0.000000
0.000000
0.016393
0.000000
0.044118
0.000000
0.049180
0.073529
0.073529
0.088235
0.147059
0.073529
0.000000
0.000000
0.049180
0.000000
0.147059
0.470588
0.455882
0.455882
0.455882
0.117647
0.000000
0.000000
0.000000
0.000000
0.000000
0.000000
0.000000
0.000000
0.000000
0.000000
0.000000
0.000000
0.000000
0.000000
0.000000
0.029412
0.014706
0.044118
0.044118
0.176471
0.044118
0.426471
0.200000
0.400000
0.278689
0.100000
0.455882
0.000000
0.000000
0.029412
0.147059
0.000000
0.000000
0.308824
0.000000
0.000000
0.000000
0.000000
0.000000
0.235294
0.102941
0.191176
0.029412
0.102941
0.000000
0.000000
0.000000
0.000000
0.000000
0.000000
0.000000
0.132353
0.029412
0.029412
0.014706
0.132353
0.088235
0.014706
0.176471
0.250000
0.250000
0.279412
0.102941
0.132353
0.279412
0.029412
0.014706
0.014706
0.102941
0.029412
0.000000
0.000000
0.000000
0.000000
0.000000
0.140000
0.032787
0.176471
0.044118
0.455882
0.294118
0.044118
0.380000
0.200000
0.295082
0.294118
0.294118
0.161765
0.014706
0.073529
0.029412
0.117647
0.014706
0.308824
0.308824
0.367647
0.264706
0.161765
0.176471
0.132353
0.264706
0.132353
0.102941
0.411765
0.352941
0.573529
0.000000
0.000000
0.121951
0.068182
0.279070
0.132075
0.000000
0.465116
0.380000
0.357143
0.250000
0.285714
0.459016
0.180328
0.232558
0.139535
0.200000
0.046512
0.178571
0.200000
0.112903
0.292308
0.220588
0.323077
0.279412
0.161765
0.000000
0.000000
0.000000
0.053571
0.000000
0.000000
0.147541
0.000000
0.076923
0.102941
0.107692
0.132353
0.132353
0.261538
0.000000
0.000000
0.014706
0.058824
0.044118
0.102941
0.161765
0.397059
0.279412
0.382353
0.235294
0.441176
0.000000
0.000000
0.000000
0.000000
0.000000
0.000000
0.000000
0.000000
0.000000
0.000000
0.000000
0.000000
0.000000
0.000000
0.000000
0.000000
0.000000
0.000000
0.000000
0.000000
0.000000
0.044118
0.250000
0.220588
0.250000
0.441176
0.220588
0.176471
0.161765
0.235294
0.191176
0.191176
0.147059
0.176471
0.161765
0.102941
0.279412
0.176471
0.308824
0.161765
0.308824
0.073529
0.058824
0.088235
0.073529
0.102941
0.029412
0.058824
0.000000
0.000000
0.000000
0.000000
0.000000
0.000000
0.000000
0.000000
0.000000
0.000000
0.000000
0.000000
0.000000
0.000000
0.000000
0.000000
0.000000
0.000000
0.014706
0.014706
0.014706
0.000000
0.000000
0.000000
0.014706
0.058824
0.014706
0.014706
0.029412
0.014706
0.073529
0.029412
0.014706
0.044118
0.029412
0.044118
0.029412
0.073529
0.073529
0.014706
0.073529
0.044118
0.147059
0.132353
0.161765
0.220588
0.132353
0.014706
0.073529
0.058824
0.147059
0.102941
0.014706
0.044118
0.044118
0.058824
0.073529
0.102941
0.102941
0.088235
0.088235
0.044118
0.058824
0.044118
0.088235
0.102941
0.058824
0.014706
0.014706
0.044118
0.058824
0.058824
0.029412
0.117647
0.147059
0.117647
0.102941
0.161765
0.176471
0.205882
0.250000
0.220588
0.294118
0.220588
0.308824
0.264706
0.264706
0.264706
0.205882
0.176471
0.220588
0.235294
0.308824
0.235294
0.294118
0.102941
0.117647
0.044118
0.147059
0.000000
0.000000
0.000000
0.000000
0.000000
0.000000
0.000000
0.000000
0.000000
0.000000
0.000000
0.000000
0.000000
0.000000
0.000000
0.000000
0.000000
0.000000
0.000000
0.000000
0.000000
0.000000
0.014706
0.046512
0.000000
0.071429
0.017857
0.160714
0.114754
0.000000
0.184615
0.092308
0.073529
0.046154
0.132353
0.132353
0.000000
0.338462
0.382353
0.367647
0.294118
0.264706
0.455882
0.220588
0.000000
0.029412
0.000000
0.102941
0.014706
0.139535
0.209302
0.200000
0.465116
0.285714
0.279070
0.360000
0.267857
0.357143
0.132075
0.180328
0.459016
0.121951
0.000000
0.068182
0.000000
0.000000
0.292308
0.200000
0.220588
0.112903
0.161765
0.029412
0.058824
0.014706
0.161765
0.058824
0.147059
0.132353
0.220588
0.176471
0.294118
0.279412
0.117647
0.323529
0.323529
0.470588
0.235294
0.235294
0.161765
0.205882
0.161765
0.264706
0.088235
0.014706
0.000000
0.073529
0.000000
0.132353
0.014706
0.000000
0.250000
0.161765
0.147059
0.058824
0.250000
0.176471
0.000000
0.308824
0.308824
0.338235
0.279412
0.441176
0.000000
0.000000
0.073529
0.014706
0.191176
0.029412
0.000000
0.250000
0.250000
0.250000
0.338235
0.088235
0.220588
0.632353
0.205882
0.323529
0.485294
0.500000
0.397059
0.411765
0.352941
0.073529
0.132353
0.058824
0.205882
0.000000
0.029412
0.352941
0.250000
0.294118
0.132353
0.382353
0.044118
0.132353
0.117647
0.073529
0.088235
0.014706
0.029412
0.044118
0.000000
0.014706
0.000000
0.014706
0.014706
0.014706
0.000000
0.029412
0.044118
0.000000
0.014706
0.014706
0.000000
0.000000
0.000000
0.073529
0.000000
0.220588
0.132353
0.441176
0.191176
0.044118
0.485294
0.558824
0.529412
0.441176
0.294118
0.411765
0.323529
0.264706
0.088235
0.161765
0.000000
0.102941
0.426471
0.176471
0.558824
0.573529
0.308824
0.558824
0.426471
0.000000
0.000000
0.000000
0.000000
0.000000
0.049180
0.000000
0.000000
0.000000
0.049180
0.000000
0.000000
0.092308
0.117647
0.076923
0.147059
0.061538
0.000000
0.000000
0.000000
0.000000
0.000000
0.147059
0.102941
0.088235
0.073529
0.102941
0.088235
0.061538
0.073529
0.073529
0.061538
0.061538
0.046154
0.049180
0.049180
0.073529
0.058824
0.058824
0.044118
0.058824
0.044118
0.030769
0.000000
0.000000
0.000000
0.000000
0.000000
0.132353
0.455882
0.088235
0.147059
0.102941
0.147059
0.058824
0.073529
0.455882
0.058824
0.088235
0.088235
0.102941
0.029412
0.044118
0.014706
0.058824
0.058824
0.470588
0.058824
0.102941
0.058824
0.000000
0.000000
0.000000
0.000000
0.000000
0.016393
0.000000
0.000000
0.000000
0.000000
0.000000
0.000000
0.015385
0.014706
0.000000
0.014706
0.000000
0.000000
0.000000
0.000000
0.000000
0.000000
0.000000
0.014706
0.029412
0.029412
0.000000
0.014706
0.029412
0.014706
0.029412
0.029412
0.029412
0.029412
0.044118
0.029412
0.000000
0.014706
0.000000
0.000000
0.000000
0.000000
0.014706
0.132353
0.102941
0.044118
0.102941
0.044118
0.000000
0.000000
0.014706
0.014706
0.029412
0.058824
0.058824
0.058824
0.073529
0.044118
0.073529
0.029412
0.029412
0.073529
0.161765
0.044118
0.029412
0.029412
0.044118
0.029412
0.014706
0.044118
0.029412
0.029412
0.014706
0.029412
0.000000
0.000000
0.014706
0.014706
0.000000
0.029412
0.014706
0.014706
0.029412
0.029412
0.044118
0.029412
0.029412
0.044118
0.014706
0.029412
0.014706
0.029412
0.014706
0.029412
0.044118
0.088235
0.191176
0.044118
0.088235
0.058824
0.000000
0.000000
0.000000
0.000000
0.000000
0.000000
0.000000
0.000000
0.000000
0.000000
0.000000
0.000000
0.000000
0.000000
0.000000
0.014706
0.000000
0.000000
0.000000
0.000000
0.000000
0.000000
0.000000
0.000000
0.000000
0.000000
0.000000
0.000000
0.000000
0.000000
0.000000
0.000000
0.000000
0.000000
0.000000
0.000000
0.000000
0.000000
0.000000
0.000000
0.000000
0.000000
0.000000
0.000000
0.000000
0.000000
0.000000
0.000000
0.000000
0.000000
0.000000
0.000000
0.000000
0.000000
0.000000
0.000000
0.000000
0.000000
0.000000
0.000000
0.000000
0.000000
0.000000
0.000000
0.000000
0.000000
0.000000
0.000000
0.000000
0.000000
0.000000
0.000000
0.000000
0.044118
0.000000
0.102941
0.044118
0.044118
0.000000
0.102941
0.044118
0.000000
0.176471
0.308824
0.176471
0.426471
0.176471
0.000000
0.000000
0.000000
0.044118
0.000000
0.000000
0.000000
0.000000
0.000000
0.000000
0.000000
0.000000
0.000000
0.000000
0.000000
0.000000
0.000000
0.000000
0.000000
0.000000
0.000000
0.000000
0.000000
0.000000
0.000000
0.000000
0.000000
0.000000
0.000000
0.000000
0.000000
0.000000
0.000000
0.000000
0.000000
0.000000
0.016393
0.000000
0.000000
0.000000
0.029412
0.015385
0.044118
0.030769
0.000000
0.000000
0.000000
0.000000
0.000000
0.058824
0.058824
0.058824
0.044118
0.073529
0.073529
0.046154
0.088235
0.073529
0.061538
0.061538
0.061538
0.049180
0.049180
0.117647
0.102941
0.132353
0.088235
0.176471
0.147059
0.076923
0.000000
0.000000
0.000000
0.000000
0.000000
0.058824
0.470588
0.073529
0.088235
0.088235
0.058824
0.073529
0.073529
0.455882
0.102941
0.117647
0.088235
0.058824
0.029412
0.058824
0.014706
0.073529
0.132353
0.455882
0.205882
0.205882
0.220588
0.000000
0.000000
0.000000
0.000000
0.000000
0.049180
0.000000
0.000000
0.000000
0.049180
0.000000
0.000000
0.092308
0.117647
0.107692
0.176471
0.112903
0.000000
0.000000
0.000000
0.000000
0.000000
0.000000
0.000000
0.000000
0.000000
0.000000
0.000000
0.000000
0.000000
0.000000
0.000000
0.049180
0.049180
0.000000
0.000000
0.000000
0.000000
0.000000
0.092308
0.076923
0.117647
0.061538
0.147059
0.000000
0.000000
0.000000
0.000000
0.000000
0.049180
0.049180
0.046154
0.061538
0.073529
0.061538
0.073529
0.088235
0.061538
0.030769
0.044118
0.058824
0.058824
0.058824
0.058824
0.073529
0.073529
0.088235
0.102941
0.117647
0.176471
0.000000
0.000000
0.000000
0.000000
0.000000
0.000000
0.000000
0.000000
0.000000
0.000000
0.000000
0.016393
0.000000
0.000000
0.000000
0.000000
0.000000
0.015385
0.000000
0.029412
0.000000
0.029412
0.205882
0.176471
0.455882
0.102941
0.205882
0.088235
0.470588
0.073529
0.102941
0.117647
0.382353
0.455882
0.073529
0.058824
0.485294
0.058824
0.073529
0.117647
0.102941
0.102941
0.102941
0.073529
0.000000
0.000000
0.000000
0.000000
0.000000
0.000000
0.000000
0.000000
0.000000
0.000000
0.000000
0.000000
0.000000
0.000000
0.000000
0.000000
0.014706
0.000000
0.044118
0.058824
0.014706
0.000000
0.000000
0.000000
0.014706
0.044118
0.058824
0.044118
0.058824
0.029412
0.088235
0.073529
0.029412
0.058824
0.073529
0.073529
0.044118
0.058824
0.088235
0.029412
0.014706
0.014706
0.000000
0.014706
0.000000
0.000000
0.014706
0.029412
0.044118
0.029412
0.058824
0.044118
0.058824
0.132353
0.117647
0.117647
0.058824
0.044118
0.044118
0.073529
0.029412
0.029412
0.029412
0.029412
0.014706
0.014706
0.088235
0.044118
0.044118
0.029412
0.073529
0.058824
0.014706
0.000000
0.000000
0.000000
0.000000
0.000000
0.117647
0.073529
0.338235
0.044118
0.044118
0.014706
0.029412
0.014706
0.029412
0.014706
0.014706
0.044118
0.014706
0.000000
0.000000
0.000000
0.000000
0.088235
0.044118
0.073529
0.014706
0.058824
0.000000
0.000000
0.000000
0.000000
0.000000
0.000000
0.000000
0.000000
0.000000
0.000000
0.032787
0.000000
0.000000
0.000000
0.000000
0.000000
0.000000
0.015385
0.030769
0.029412
0.046154
0.058824
0.000000
0.000000
0.000000
0.000000
0.000000
0.049180
0.049180
0.061538
0.061538
0.073529
0.061538
0.088235
0.088235
0.061538
0.061538
0.073529
0.102941
0.088235
0.147059
0.176471
0.132353
0.058824
0.073529
0.058824
0.088235
0.058824
0.000000
0.000000
0.000000
0.000000
0.000000
0.000000
0.000000
0.000000
0.000000
0.000000
0.049180
0.049180
0.000000
0.000000
0.000000
0.000000
0.000000
0.076923
0.092308
0.117647
0.112903
0.161765
0.058824
0.088235
0.485294
0.088235
0.058824
0.117647
0.455882
0.117647
0.058824
0.191176
0.441176
0.161765
0.176471
0.220588
0.455882
0.250000
0.220588
0.088235
0.147059
0.088235
0.250000
0.102941
0.029412
0.029412
0.014706
0.014706
0.000000
0.014706
0.000000
0.000000
0.000000
0.000000
0.000000
0.014706
0.000000
0.000000
0.000000
0.000000
0.000000
0.000000
0.000000
0.000000
0.000000
0.000000
0.000000
0.000000
0.000000
0.000000
0.000000
0.000000
0.000000
0.000000
0.000000
0.000000
0.000000
0.000000
0.000000
0.000000
0.000000
0.000000
0.000000
0.000000
0.000000
0.000000
0.000000
0.000000
0.000000
0.000000
0.000000
0.000000
0.000000
0.000000
0.000000
0.000000
0.000000
0.000000
0.000000
0.000000
0.000000
0.000000
0.000000
0.000000
0.000000
0.014706
0.000000
0.044118
0.000000
0.000000
0.000000
0.000000
0.000000
0.000000
0.000000
0.000000
0.044118
0.000000
0.102941
0.000000
0.044118
0.102941
0.102941
0.102941
0.176471
0.176471
0.000000
0.000000
0.044118
0.000000
0.102941
0.308824
0.308824
0.426471
0.308824
0.558824
0.000000
0.121951
0.068182
0.279070
0.132075
0.465116
0.360000
0.357143
0.250000
0.285714
0.442623
0.163934
0.209302
0.162791
0.200000
0.046512
0.160714
0.200000
0.292308
0.220588
0.338462
0.264706
0.000000
0.000000
0.000000
0.053571
0.000000
0.000000
0.098361
0.000000
0.015385
0.058824
0.046154
0.102941
0.117647
0.153846
0.000000
0.000000
0.000000
0.014706
0.000000
0.000000
0.058824
0.308824
0.205882
0.352941
0.191176
0.441176
0.000000
0.000000
0.000000
0.000000
0.000000
0.000000
0.000000
0.000000
0.000000
0.000000
0.000000
0.000000
0.000000
0.000000
0.000000
0.000000
0.000000
0.000000
0.000000
0.000000
0.000000
0.000000
0.279412
0.352941
0.470588
0.147059
0.279412
0.132353
0.132353
0.176471
0.205882
0.058824
0.132353
0.294118
0.044118
0.014706
0.029412
0.000000
0.014706
0.205882
0.191176
0.132353
0.058824
0.058824
0.000000
0.000000
0.000000
0.000000
0.000000
0.000000
0.000000
0.000000
0.000000
0.000000
0.000000
0.000000
0.000000
0.000000
0.000000
0.000000
0.000000
0.000000
0.000000
0.000000
0.000000
0.000000
0.000000
0.000000
0.000000
0.000000
0.088235
0.029412
0.044118
0.000000
0.088235
0.029412
0.000000
0.058824
0.014706
0.014706
0.014706
0.029412
0.029412
0.000000
0.132353
0.058824
0.073529
0.058824
0.191176
0.088235
0.058824
0.014706
0.029412
0.014706
0.029412
0.000000
0.088235
0.147059
0.205882
0.176471
0.323529
0.352941
0.205882
0.279412
0.411765
0.426471
0.250000
0.264706
0.455882
0.161765
0.161765
0.176471
0.102941
0.205882
0.058824
0.044118
0.205882
0.191176
0.279412
0.191176
0.485294
0.279412
0.000000
0.029412
0.014706
0.029412
0.014706
0.044118
0.029412
0.014706
0.029412
0.029412
0.014706
0.029412
0.058824
0.102941
0.058824
0.073529
0.014706
0.044118
0.014706
0.014706
0.014706
0.044118
0.000000
0.000000
0.000000
0.000000
0.000000
0.000000
0.000000
0.000000
0.000000
0.000000
0.000000
0.000000
0.000000
0.023256
0.000000
0.000000
0.000000
0.000000
0.000000
0.000000
0.000000
0.000000
0.046512
0.020000
0.053571
0.017857
0.196429
0.163934
0.032787
0.230769
0.076923
0.073529
0.046154
0.102941
0.132353
0.015385
0.353846
0.426471
0.382353
0.411765
0.279412
0.441176
0.294118
0.000000
0.058824
0.014706
0.147059
0.029412
0.162791
0.255814
0.200000
0.465116
0.303571
0.279070
0.380000
0.267857
0.375000
0.132075
0.196721
0.442623
0.121951
0.000000
0.068182
0.323077
0.215385
0.264706
0.117647
0.147059
0.294118
0.191176
0.264706
0.191176
0.205882
0.235294
0.235294
0.220588
0.147059
0.205882
0.382353
0.411765
0.279412
0.132353
0.088235
0.073529
0.014706
0.014706
0.014706
0.014706
0.000000
0.029412
0.014706
0.014706
0.014706
0.058824
0.044118
0.000000
0.044118
0.073529
0.102941
0.191176
0.088235
0.029412
0.029412
0.000000
0.073529
0.000000
0.250000
0.235294
0.294118
0.279412
0.397059
0.367647
0.235294
0.367647
0.411765
0.426471
0.382353
0.426471
0.382353
0.191176
0.220588
0.264706
0.147059
0.308824
0.058824
0.058824
0.382353
0.132353
0.176471
0.058824
0.352941
0.029412
0.279412
0.485294
0.411765
0.279412
0.264706
0.191176
0.205882
0.102941
0.191176
0.044118
0.044118
0.205882
0.102941
0.044118
0.044118
0.161765
0.058824
0.058824
0.088235
0.279412
0.161765
0.485294
0.294118
0.441176
0.558824
0.441176
0.529412
0.205882
0.323529
0.411765
0.220588
0.088235
0.132353
0.558824
0.426471
0.558824
VECTORS displacements double 
-0.002495 0.000000 0.000000 
0.002495 0.000000 0.000000 
0.002495 0.000000 0.000000 
-0.002495 0.000000 0.000000 
-0.002495 0.000000 0.000000 
-0.002495 0.000000 0.000000 
-0.002495 0.000000 0.000000 
-0.002495 0.000000 0.000000 
0.002296 0.005015 -0.000152 
0.000099 0.004281 -0.000011 
0.000204 0.003962 -0.000143 
0.000204 0.003810 -0.000151 
0.000191 0.003694 0.000144 
0.000223 0.003572 0.000120 
0.000205 0.003474 -0.000191 
0.000231 0.003299 0.000027 
0.000211 0.003199 0.000186 
0.000218 0.003086 0.000401 
0.000282 0.002935 0.000432 
0.000276 0.002858 0.000147 
0.000304 0.002718 -0.000119 
0.000330 0.002640 0.000051 
0.000391 0.002575 0.000248 
0.000409 0.002540 0.000004 
0.000421 0.002539 0.000093 
0.000478 0.002562 0.000029 
0.000490 0.002636 0.000031 
0.000536 0.002729 0.000191 
0.000561 0.003085 0.000197 
0.000572 0.003525 -0.000013 
-0.002439 0.004165 -0.000257 