# vtk DataFile Version 2.0
Solution time step = 499 
ASCII

DATASET UNSTRUCTURED_GRID
POINTS 2113 double
0.000000 0.000000 0.000000 
1.000000 0.000000 0.000000 
1.000000 1.000000 0.000000 
0.000000 1.000000 0.000000 
0.031250 0.000000 0.000000 
0.062500 0.000000 0.000000 
0.093750 0.000000 0.000000 
0.125000 0.000000 0.000000 
0.156250 0.000000 0.000000 
0.187500 0.000000 0.000000 
0.218750 0.000000 0.000000 
0.250000 0.000000 0.000000 
0.281250 0.000000 0.000000 
0.312500 0.000000 0.000000 
0.343750 0.000000 0.000000 
0.375000 0.000000 0.000000 
0.406250 0.000000 0.000000 
0.437500 0.000000 0.000000 
0.468750 0.000000 0.000000 
0.500000 0.000000 0.000000 
0.531250 0.000000 0.000000 
0.562500 0.000000 0.000000 
0.593750 0.000000 0.000000 
0.625000 0.000000 0.000000 
0.656250 0.000000 0.000000 
0.687500 0.000000 0.000000 
0.718750 0.000000 0.000000 
0.750000 0.000000 0.000000 
0.781250 0.000000 0.000000 
0.812500 0.000000 0.000000 
0.843750 0.000000 0.000000 
0.875000 0.000000 0.000000 
0.906250 0.000000 0.000000 
0.937500 0.000000 0.000000 
0.968750 0.000000 0.000000 
1.000000 0.031250 0.000000 
1.000000 0.062500 0.000000 
1.000000 0.093750 0.000000 
1.000000 0.125000 0.000000 
1.000000 0.156250 0.000000 
1.000000 0.187500 0.000000 
1.000000 0.218750 0.000000 
1.000000 0.250000 0.000000 
1.000000 0.281250 0.000000 
1.000000 0.312500 0.000000 
1.000000 0.343750 0.000000 
1.000000 0.375000 0.000000 
1.000000 0.406250 0.000000 
1.000000 0.437500 0.000000 
1.000000 0.468750 0.000000 
1.000000 0.500000 0.000000 
1.000000 0.531250 0.000000 
1.000000 0.562500 0.000000 
1.000000 0.593750 0.000000 
1.000000 0.625000 0.000000 
1.000000 0.656250 0.000000 
1.000000 0.687500 0.000000 
1.000000 0.718750 0.000000 
1.000000 0.750000 0.000000 
1.000000 0.781250 0.000000 
1.000000 0.812500 0.000000 
1.000000 0.843750 0.000000 
1.000000 0.875000 0.000000 
1.000000 0.906250 0.000000 
1.000000 0.937500 0.000000 
1.000000 0.968750 0.000000 
0.968750 1.000000 0.000000 
0.937500 1.000000 0.000000 
0.906250 1.000000 0.000000 
0.875000 1.000000 0.000000 
0.843750 1.000000 0.000000 
0.812500 1.000000 0.000000 
0.781250 1.000000 0.000000 
0.750000 1.000000 0.000000 
0.718750 1.000000 0.000000 
0.687500 1.000000 0.000000 
0.656250 1.000000 0.000000 
0.625000 1.000000 0.000000 
0.593750 1.000000 0.000000 
0.562500 1.000000 0.000000 
0.531250 1.000000 0.000000 
0.500000 1.000000 0.000000 
0.468750 1.000000 0.000000 
0.437500 1.000000 0.000000 
0.406250 1.000000 0.000000 
0.375000 1.000000 0.000000 
0.343750 1.000000 0.000000 
0.312500 1.000000 0.000000 
0.281250 1.000000 0.000000 
0.250000 1.000000 0.000000 
0.218750 1.000000 0.000000 
0.187500 1.000000 0.000000 
0.156250 1.000000 0.000000 
0.125000 1.000000 0.000000 
0.093750 1.000000 0.000000 
0.062500 1.000000 0.000000 
0.031250 1.000000 0.000000 
0.000000 0.968750 0.000000 
0.000000 0.937500 0.000000 
0.000000 0.906250 0.000000 
0.000000 0.875000 0.000000 
0.000000 0.843750 0.000000 
0.000000 0.812500 0.000000 
0.000000 0.781250 0.000000 
0.000000 0.750000 0.000000 
0.000000 0.718750 0.000000 
0.000000 0.687500 0.000000 
0.000000 0.656250 0.000000 
0.000000 0.625000 0.000000 
0.000000 0.593750 0.000000 
0.000000 0.562500 0.000000 
0.000000 0.531250 0.000000 
0.000000 0.500000 0.000000 
0.000000 0.468750 0.000000 
0.000000 0.437500 0.000000 
0.000000 0.406250 0.000000 
0.000000 0.375000 0.000000 
0.000000 0.343750 0.000000 
0.000000 0.312500 0.000000 
0.000000 0.281250 0.000000 
0.000000 0.250000 0.000000 
0.000000 0.218750 0.000000 
0.000000 0.187500 0.000000 
0.000000 0.156250 0.000000 
0.000000 0.125000 0.000000 
0.000000 0.093750 0.000000 
0.000000 0.062500 0.000000 
0.000000 0.031250 0.000000 
0.500000 0.500000 0.000000 
0.750000 0.250000 0.000000 
0.250000 0.250000 0.000000 
0.250000 0.750000 0.000000 
0.750000 0.750000 0.000000 
0.375000 0.125000 0.000000 
0.125000 0.125000 0.000000 
0.625000 0.125000 0.000000 
0.500000 0.250000 0.000000 
0.875000 0.125000 0.000000 
0.625000 0.375000 0.000000 
0.375000 0.375000 0.000000 
0.125000 0.375000 0.000000 
0.250000 0.500000 0.000000 
0.125000 0.625000 0.000000 
0.375000 0.625000 0.000000 
0.125000 0.875000 0.000000 
0.875000 0.375000 0.000000 
0.875000 0.625000 0.000000 
0.750000 0.500000 0.000000 
0.875000 0.875000 0.000000 
0.625000 0.625000 0.000000 
0.625000 0.875000 0.000000 
0.375000 0.875000 0.000000 
0.500000 0.750000 0.000000 
0.187500 0.062500 0.000000 
0.062500 0.062500 0.000000 
0.312500 0.062500 0.000000 
0.250000 0.125000 0.000000 
0.437500 0.062500 0.000000 
0.312500 0.187500 0.000000 
0.187500 0.187500 0.000000 
0.562500 0.062500 0.000000 
0.500000 0.125000 0.000000 
0.562500 0.187500 0.000000 
0.437500 0.187500 0.000000 
0.687500 0.187500 0.000000 
0.625000 0.250000 0.000000 
0.375000 0.250000 0.000000 
0.687500 0.062500 0.000000 
0.812500 0.062500 0.000000 
0.750000 0.125000 0.000000 
0.937500 0.062500 0.000000 
0.812500 0.187500 0.000000 
0.437500 0.312500 0.000000 
0.312500 0.312500 0.000000 
0.562500 0.312500 0.000000 
0.500000 0.375000 0.000000 
0.687500 0.312500 0.000000 
0.562500 0.437500 0.000000 
0.437500 0.437500 0.000000 
0.062500 0.187500 0.000000 
0.125000 0.250000 0.000000 
0.062500 0.312500 0.000000 
0.187500 0.312500 0.000000 
0.062500 0.437500 0.000000 
0.250000 0.375000 0.000000 
0.187500 0.437500 0.000000 
0.187500 0.562500 0.000000 
0.125000 0.500000 0.000000 
0.250000 0.625000 0.000000 
0.187500 0.687500 0.000000 
0.062500 0.562500 0.000000 
0.312500 0.437500 0.000000 
0.375000 0.500000 0.000000 
0.312500 0.562500 0.000000 
0.437500 0.562500 0.000000 
0.312500 0.687500 0.000000 
0.062500 0.687500 0.000000 
0.125000 0.750000 0.000000 
0.062500 0.812500 0.000000 
0.187500 0.812500 0.000000 
0.062500 0.937500 0.000000 
0.937500 0.187500 0.000000 
0.937500 0.312500 0.000000 
0.875000 0.250000 0.000000 
0.937500 0.437500 0.000000 
0.812500 0.312500 0.000000 
0.937500 0.562500 0.000000 
0.875000 0.500000 0.000000 
0.812500 0.562500 0.000000 
0.812500 0.437500 0.000000 
0.812500 0.687500 0.000000 
0.750000 0.625000 0.000000 
0.750000 0.375000 0.000000 
0.937500 0.687500 0.000000 
0.937500 0.812500 0.000000 
0.875000 0.750000 0.000000 
0.937500 0.937500 0.000000 
0.812500 0.812500 0.000000 
0.687500 0.437500 0.000000 
0.687500 0.562500 0.000000 
0.625000 0.500000 0.000000 
0.687500 0.687500 0.000000 
0.562500 0.562500 0.000000 
0.812500 0.937500 0.000000 
0.687500 0.937500 0.000000 
0.750000 0.875000 0.000000 
0.562500 0.937500 0.000000 
0.687500 0.812500 0.000000 
0.437500 0.937500 0.000000 
0.500000 0.875000 0.000000 
0.437500 0.812500 0.000000 
0.562500 0.812500 0.000000 
0.312500 0.812500 0.000000 
0.375000 0.750000 0.000000 
0.625000 0.750000 0.000000 
0.312500 0.937500 0.000000 
0.187500 0.937500 0.000000 
0.250000 0.875000 0.000000 
0.562500 0.687500 0.000000 
0.437500 0.687500 0.000000 
0.500000 0.625000 0.000000 
0.093750 0.031250 0.000000 
0.031250 0.031250 0.000000 
0.156250 0.031250 0.000000 
0.125000 0.062500 0.000000 
0.218750 0.031250 0.000000 
0.156250 0.093750 0.000000 
0.093750 0.093750 0.000000 
0.281250 0.031250 0.000000 
0.250000 0.062500 0.000000 
0.281250 0.093750 0.000000 
0.218750 0.093750 0.000000 
0.343750 0.093750 0.000000 
0.312500 0.125000 0.000000 
0.187500 0.125000 0.000000 
0.343750 0.031250 0.000000 
0.406250 0.031250 0.000000 
0.375000 0.062500 0.000000 
0.468750 0.031250 0.000000 
0.406250 0.093750 0.000000 
0.218750 0.156250 0.000000 
0.156250 0.156250 0.000000 
0.281250 0.156250 0.000000 
0.250000 0.187500 0.000000 
0.343750 0.156250 0.000000 
0.281250 0.218750 0.000000 
0.218750 0.218750 0.000000 
0.531250 0.031250 0.000000 
0.500000 0.062500 0.000000 
0.531250 0.093750 0.000000 
0.468750 0.093750 0.000000 
0.593750 0.093750 0.000000 
0.562500 0.125000 0.000000 
0.437500 0.125000 0.000000 
0.593750 0.156250 0.000000 
0.531250 0.156250 0.000000 
0.500000 0.187500 0.000000 
0.468750 0.156250 0.000000 
0.531250 0.218750 0.000000 
0.468750 0.218750 0.000000 
0.406250 0.156250 0.000000 
0.656250 0.156250 0.000000 
0.625000 0.187500 0.000000 
0.656250 0.218750 0.000000 
0.593750 0.218750 0.000000 
0.718750 0.218750 0.000000 
0.687500 0.250000 0.000000 
0.562500 0.250000 0.000000 
0.375000 0.187500 0.000000 
0.406250 0.218750 0.000000 
0.343750 0.218750 0.000000 
0.437500 0.250000 0.000000 
0.312500 0.250000 0.000000 
0.593750 0.031250 0.000000 
0.656250 0.031250 0.000000 
0.625000 0.062500 0.000000 
0.718750 0.031250 0.000000 
0.656250 0.093750 0.000000 
0.781250 0.031250 0.000000 
0.750000 0.062500 0.000000 
0.781250 0.093750 0.000000 
0.718750 0.093750 0.000000 
0.843750 0.093750 0.000000 
0.812500 0.125000 0.000000 
0.687500 0.125000 0.000000 
0.843750 0.031250 0.000000 
0.906250 0.031250 0.000000 
0.875000 0.062500 0.000000 
0.968750 0.031250 0.000000 
0.906250 0.093750 0.000000 
0.718750 0.156250 0.000000 
0.781250 0.156250 0.000000 
0.750000 0.187500 0.000000 
0.843750 0.156250 0.000000 
0.781250 0.218750 0.000000 
0.343750 0.281250 0.000000 
0.281250 0.281250 0.000000 
0.406250 0.281250 0.000000 
0.375000 0.312500 0.000000 
0.468750 0.281250 0.000000 
0.406250 0.343750 0.000000 
0.343750 0.343750 0.000000 
0.531250 0.281250 0.000000 
0.500000 0.312500 0.000000 
0.531250 0.343750 0.000000 
0.468750 0.343750 0.000000 
0.593750 0.343750 0.000000 
0.562500 0.375000 0.000000 
0.437500 0.375000 0.000000 
0.593750 0.281250 0.000000 
0.656250 0.281250 0.000000 
0.625000 0.312500 0.000000 
0.718750 0.281250 0.000000 
0.656250 0.343750 0.000000 
0.468750 0.406250 0.000000 
0.406250 0.406250 0.000000 
0.531250 0.406250 0.000000 
0.500000 0.437500 0.000000 
0.593750 0.406250 0.000000 
0.531250 0.468750 0.000000 
0.468750 0.468750 0.000000 
0.031250 0.093750 0.000000 
0.062500 0.125000 0.000000 
0.031250 0.156250 0.000000 
0.093750 0.156250 0.000000 
0.031250 0.218750 0.000000 
0.125000 0.187500 0.000000 
0.093750 0.218750 0.000000 
0.093750 0.281250 0.000000 
0.062500 0.250000 0.000000 
0.125000 0.312500 0.000000 
0.093750 0.343750 0.000000 
0.031250 0.281250 0.000000 
[...]
POINT_DATA 2113
SCALARS damage double
LOOKUP_TABLE default
0.000000
0.000000
0.000000
0.000000
0.000000
0.060606
0.189189
0.378378
0.405405
0.189189
0.135135
0.000000
0.000000
0.000000
0.000000
0.000000
0.000000
0.000000
0.000000
0.000000
0.000000
0.000000
0.000000
0.000000
0.000000
0.000000
0.000000
0.000000
0.081081
0.162162
0.351351
0.378378
0.189189
0.060606
0.000000
0.000000
0.000000
0.000000
0.000000
0.000000
0.000000
0.000000
0.000000
0.000000
0.000000
0.000000
0.000000
0.000000
0.000000
0.000000
0.000000
0.000000
0.000000
0.000000
0.000000
0.000000
0.000000
0.000000
0.000000
0.000000
0.000000
0.000000
0.000000
0.000000
0.000000
0.000000
0.000000
0.060606
0.189189
0.378378
0.351351
0.162162
0.135135
0.000000
0.000000
0.000000
0.000000
0.000000
0.000000
0.000000
0.000000
0.000000
0.027027
0.000000
0.000000
0.000000
0.000000
0.000000
0.000000
0.027027
0.108108
0.216216
0.378378
0.378378
0.189189
0.060606
0.000000
0.000000
0.000000
0.000000
0.000000
0.000000
0.000000
0.000000
0.000000
0.000000
0.000000
0.000000
0.000000
0.000000
0.000000
0.000000
0.000000
0.000000
0.000000
0.000000
0.000000
0.000000
0.000000
0.000000
0.000000
0.000000
0.000000
0.000000
0.000000
0.000000
0.000000
0.000000
0.573529
0.058824
0.102941
0.000000
0.176471
0.000000
0.264706
0.014706
0.264706
0.264706
0.000000
0.000000
0.058824
0.000000
0.044118
0.000000
0.161765
0.058824
0.058824
0.000000
0.264706
0.000000
0.014706
0.029412
0.132353
0.245902
0.055556
0.000000
0.102941
0.000000
0.044118
0.411765
0.000000
0.000000
0.161765
0.029412
0.176471
0.132353
0.073529
0.000000
0.229508
0.117647
0.055556
0.426471
0.147059
0.000000
0.279412
0.529412
0.000000
0.176471
0.102941
0.049180
0.117647
0.049180
0.382353
0.000000
0.014706
0.058824
0.058824
0.014706
0.000000
0.029412
0.000000
0.000000
0.000000
0.000000
0.102941
0.000000
0.016393
0.073529
0.049180
0.220588
0.055556
0.049180
0.049180
0.117647
0.000000
0.058824
0.000000
0.014706
0.058824
0.044118
0.161765
0.000000
0.000000
0.049180
0.049180
0.132353
0.055556
0.426471
0.000000
0.000000
0.000000
0.014706
0.176471
0.213115
0.000000
0.117647
0.000000
0.029412
0.000000
0.014706
0.102941
0.029412
0.250000
0.264706
0.044118
0.000000
0.229508
0.161765
0.088235
0.250000
0.558824
0.200000
0.000000
0.380000
0.311475
0.120000
0.470588
0.176471
0.000000
0.000000
0.014706
0.117647
0.000000
0.000000
0.455882
0.000000
0.000000
0.000000
0.000000
0.000000
0.191176
0.441176
0.088235
0.117647
0.014706
0.117647
0.264706
0.000000
0.000000
0.000000
0.000000
0.000000
0.000000
0.000000
0.102941
0.044118
0.117647
0.029412
0.294118
0.161765
0.014706
0.073529
0.220588
0.161765
0.367647
0.058824
0.029412
0.352941
0.044118
0.058824
0.088235
0.073529
0.029412
0.000000
0.000000
0.000000
0.000000
0.014706
0.120000
0.000000
0.147059
0.058824
0.441176
0.441176
0.058824
0.380000
0.200000
0.311475
0.000000
0.176471
0.147059
0.308824
0.205882
0.441176
0.058824
0.029412
0.044118
0.088235
0.014706
0.205882
0.000000
0.000000
0.676471
0.411765
0.411765
0.264706
0.117647
0.220588
0.088235
0.220588
0.014706
0.029412
0.000000
0.000000
0.308824
0.000000
0.426471
0.558824
0.044118
0.426471
0.308824
0.000000
0.049180
0.000000
0.132353
0.000000
0.205882
0.088235
0.073529
0.049180
0.073529
0.044118
0.000000
0.455882
0.455882
0.470588
0.102941
0.485294
0.000000
0.016393
0.000000
0.014706
0.000000
0.058824
0.073529
0.029412
0.044118
0.014706
0.014706
0.073529
0.000000
0.058824
0.044118
0.044118
0.073529
0.014706
0.029412
0.000000
0.000000
0.014706
0.029412
0.000000
0.014706
0.117647
0.000000
0.000000
0.000000
0.000000
0.000000
0.014706
0.000000
0.000000
0.000000
0.000000
0.000000
0.000000
0.000000
0.000000
0.000000
0.000000
0.000000
0.000000
0.102941
0.000000
0.308824
0.000000
0.000000
0.000000
0.000000
0.000000
0.000000
0.000000
0.000000
0.000000
0.014706
0.000000
0.058824
0.044118
0.073529
0.049180
0.102941
0.073529
0.000000
0.485294
0.058824
0.455882
0.058824
0.455882
0.000000
0.049180
0.000000
0.117647
0.000000
0.000000
0.000000
0.049180
0.000000
0.102941
0.000000
0.049180
0.073529
0.073529
0.044118
0.073529
0.132353
0.000000
0.000000
0.016393
0.000000
0.014706
0.455882
0.470588
0.073529
0.500000
0.029412
0.000000
0.000000
0.000000
0.000000
0.014706
0.029412
0.029412
0.058824
0.044118
0.044118
0.073529
0.014706
0.000000
0.088235
0.485294
0.029412
0.058824
0.014706
0.132353
0.073529
0.000000
0.029412
0.014706
0.014706
0.000000
0.014706
0.000000
0.000000
0.016393
0.000000
0.044118
0.000000
0.049180
0.073529
0.073529
0.102941
0.205882
0.073529
0.000000
0.000000
0.049180
0.000000
0.176471
0.455882
0.455882
0.426471
0.455882
0.279412
0.000000
0.000000
0.000000
0.000000
0.000000
0.000000
0.000000
0.000000
0.000000
0.000000
0.000000
0.000000
0.000000
0.000000
0.000000
0.029412
0.000000
0.044118
0.044118
0.176471
0.044118
0.426471
0.200000
0.380000
0.311475
0.100000
0.455882
0.000000
0.000000
0.029412
0.117647
0.000000
0.014706
0.426471
0.000000
0.000000
0.000000
0.000000
0.000000
0.235294
0.117647
0.147059
0.014706
0.117647
0.000000
0.000000
0.000000
0.000000
0.000000
0.000000
0.000000
0.058824
0.014706
0.029412
0.014706
0.117647
0.058824
0.029412
0.161765
0.250000
0.264706
0.235294
0.102941
0.102941
0.294118
0.029412
0.044118
0.029412
0.088235
0.014706
0.000000
0.000000
0.000000
0.000000
0.000000
0.120000
0.065574
0.205882
0.058824
0.426471
0.455882
0.073529
0.380000
0.200000
0.245902
0.338235
0.191176
0.132353
0.029412
0.029412
0.000000
0.161765
0.014706
0.294118
0.323529
0.367647
0.294118
0.102941
0.176471
0.132353
0.264706
0.102941
0.102941
0.411765
0.338235
0.558824
0.000000
0.000000
0.121951
0.068182
0.279070
0.132075
0.000000
0.465116
0.360000
0.392857
0.267857
0.285714
0.442623
0.180328
0.232558
0.162791
0.200000
0.046512
0.196429
0.230769
0.112903
0.353846
0.279412
0.338462
0.308824
0.220588
0.000000
0.000000
0.000000
0.053571
0.000000
0.000000
0.114754
0.000000
0.015385
0.029412
0.061538
0.073529
0.102941
0.169231
0.000000
0.000000
0.014706
0.014706
0.000000
0.000000
0.044118
0.323529
0.264706
0.352941
0.161765
0.455882
0.000000
0.000000
0.000000
0.000000
0.000000
0.000000
0.000000
0.000000
0.000000
0.000000
0.000000
0.000000
0.000000
0.000000
0.000000
0.000000
0.000000
0.000000
0.000000
0.000000
0.000000
0.000000
0.352941
0.279412
0.264706
0.323529
0.117647
0.338235
0.308824
0.088235
0.102941
0.147059
0.132353
0.058824
0.132353
0.294118
0.029412
0.014706
0.014706
0.014706
0.014706
0.205882
0.264706
0.161765
0.161765
0.058824
0.132353
0.147059
0.000000
0.000000
0.000000
0.000000
0.000000
0.000000
0.000000
0.000000
0.000000
0.000000
0.000000
0.000000
0.000000
0.000000
0.000000
0.000000
0.000000
0.000000
0.000000
0.000000
0.000000
0.000000
0.000000
0.000000
0.000000
0.000000
0.044118
0.058824
0.058824
0.014706
0.161765
0.102941
0.000000
0.117647
0.058824
0.044118
0.029412
0.058824
0.044118
0.000000
0.250000
0.191176
0.235294
0.132353
0.279412
0.191176
0.132353
0.000000
0.029412
0.014706
0.058824
0.029412
0.029412
0.117647
0.191176
0.176471
0.235294
0.250000
0.205882
0.161765
0.264706
0.220588
0.382353
0.117647
0.250000
0.294118
0.117647
0.088235
0.044118
0.073529
0.044118
0.014706
0.058824
0.338235
0.308824
0.382353
0.250000
0.367647
0.014706
0.014706
0.000000
0.044118
0.058824
0.073529
0.029412
0.058824
0.044118
0.073529
0.058824
0.014706
0.029412
0.132353
0.088235
0.161765
0.088235
0.044118
0.029412
0.058824
0.088235
0.088235
0.000000
0.000000
0.000000
0.000000
0.000000
0.000000
0.000000
0.000000
0.000000
0.000000
0.000000
0.000000
0.000000
0.000000
0.000000
0.000000
0.000000
0.000000
0.000000
0.000000
0.000000
0.000000
0.046512
0.000000
0.053571
0.000000
0.178571
0.114754
0.000000
0.200000
0.061538
0.073529
0.030769
0.117647
0.102941
0.000000
0.353846
0.397059
0.352941
0.279412
0.279412
0.441176
0.191176
0.014706
0.029412
0.029412
0.132353
0.014706
0.139535
0.232558
0.220000
0.465116
0.285714
0.279070
0.380000
0.250000
0.392857
0.132075
0.180328
0.426230
0.121951
0.000000
0.068182
0.000000
0.000000
0.338462
0.246154
0.264706
0.112903
0.205882
0.058824
0.088235
0.088235
0.132353
0.235294
0.147059
0.161765
0.250000
0.235294
0.250000
0.191176
0.205882
0.367647
0.323529
0.338235
0.264706
0.250000
0.147059
0.161765
0.088235
0.147059
0.044118
0.000000
0.058824
0.014706
0.014706
0.029412
0.014706
0.000000
0.058824
0.044118
0.029412
0.014706
0.088235
0.044118
0.014706
0.073529
0.147059
0.102941
0.264706
0.191176
0.000000
0.000000
0.000000
0.000000
0.102941
0.000000
0.000000
0.323529
0.264706
0.367647
0.294118
0.426471
0.735294
0.279412
0.367647
0.647059
0.558824
0.411765
0.485294
0.367647
0.191176
0.191176
0.264706
0.147059
0.367647
0.029412
0.073529
0.426471
0.132353
0.161765
0.044118
0.294118
0.000000
0.441176
0.294118
0.323529
0.176471
0.220588
0.044118
0.088235
0.014706
0.117647
0.014706
0.000000
0.147059
0.000000
0.000000
0.000000
0.014706
0.000000
0.058824
0.000000
0.014706
0.000000
0.000000
0.044118
0.000000
0.161765
0.102941
0.411765
0.176471
0.044118
0.514706
0.544118
0.558824
0.411765
0.323529
0.426471
0.308824
0.323529
0.132353
0.191176
0.000000
0.102941
0.426471
0.176471
0.573529
0.544118
0.308824
0.588235
0.411765
0.000000
0.000000
0.000000
0.000000
0.000000
0.049180
0.000000
0.000000
0.000000
0.049180
0.000000
0.000000
0.107692
0.161765
0.107692
0.205882
0.092308
0.000000
0.000000
0.000000
0.000000
0.000000
0.220588
0.161765
0.117647
0.102941
0.147059
0.088235
0.076923
0.088235
0.073529
0.061538
0.061538
0.061538
0.049180
0.049180
0.088235
0.073529
0.058824
0.058824
0.058824
0.044118
0.046154
0.000000
0.000000
0.000000
0.000000
0.000000
0.250000
0.455882
0.191176
0.205882
0.147059
0.441176
0.147059
0.073529
0.455882
0.411765
0.058824
0.102941
0.235294
0.102941
0.102941
0.102941
0.102941
0.088235
0.485294
0.058824
0.058824
0.058824
0.000000
0.000000
0.000000
0.000000
0.000000
0.032787
0.000000
0.000000
0.000000
0.000000
0.000000
0.000000
0.030769
0.029412
0.015385
0.044118
0.000000
0.000000
0.000000
0.000000
0.000000
0.000000
0.088235
0.058824
0.073529
0.088235
0.044118
0.058824
0.102941
0.029412
0.029412
0.029412
0.044118
0.029412
0.029412
0.058824
0.014706
0.029412
0.014706
0.014706
0.000000
0.000000
0.029412
0.117647
0.426471
0.117647
0.117647
0.058824
0.014706
0.000000
0.014706
0.029412
0.014706
0.058824
0.073529
0.088235
0.088235
0.044118
0.073529
0.029412
0.029412
0.058824
0.058824
0.058824
0.029412
0.029412
0.029412
0.029412
0.014706
0.058824
0.029412
0.044118
0.014706
0.058824
0.000000
0.000000
0.000000
0.000000
0.000000
0.000000
0.029412
0.000000
0.000000
0.014706
0.014706
0.029412
0.029412
0.044118
0.000000
0.014706
0.029412
0.029412
0.000000
0.014706
0.029412
0.058824
0.058824
0.102941
0.117647
0.044118
0.014706
0.000000
0.000000
0.000000
0.000000
0.000000
0.000000
0.000000
0.000000
0.000000
0.000000
0.000000
0.014706
0.014706
0.000000
0.029412
0.000000
0.000000
0.000000
0.000000
0.000000
0.000000
0.044118
0.029412
0.029412
0.000000
0.029412
0.000000
0.000000
0.000000
0.000000
0.000000
0.000000
0.014706
0.000000
0.000000
0.000000
0.000000
0.000000
0.014706
0.000000
0.000000
0.000000
0.000000
0.000000
0.000000
0.000000
0.000000
0.000000
0.000000
0.000000
0.000000
0.000000
0.000000
0.000000
0.000000
0.000000
0.000000
0.000000
0.000000
0.000000
0.000000
0.000000
0.000000
0.000000
0.000000
0.000000
0.000000
0.000000
0.000000
0.000000
0.000000
0.000000
0.044118
0.000000
0.102941
0.044118
0.044118
0.000000
0.102941
0.044118
0.000000
0.176471
0.308824
0.176471
0.426471
0.176471
0.000000
0.000000
0.000000
0.044118
0.000000
0.000000
0.000000
0.000000
0.000000
0.000000
0.000000
0.000000
0.000000
0.000000
0.000000
0.000000
0.000000
0.000000
0.000000
0.000000
0.000000
0.000000
0.000000
0.000000
0.000000
0.000000
0.000000
0.000000
0.000000
0.000000
0.000000
0.000000
0.000000
0.000000
0.000000
0.000000
0.000000
0.000000
0.000000
0.000000
0.000000
0.000000
0.044118
0.015385
0.000000
0.000000
0.000000
0.000000
0.000000
0.058824
0.058824
0.058824
0.044118
0.073529
0.058824
0.030769
0.073529
0.058824
0.061538
0.046154
0.061538
0.049180
0.032787
0.088235
0.088235
0.088235
0.073529
0.117647
0.088235
0.061538
0.000000
0.000000
0.000000
0.000000
0.000000
0.058824
0.147059
0.058824
0.102941
0.058824
0.044118
0.073529
0.102941
0.485294
0.088235
0.132353
0.088235
0.073529
0.044118
0.058824
0.029412
0.102941
0.088235
0.455882
0.147059
0.205882
0.176471
0.000000
0.000000
0.000000
0.000000
0.000000
0.049180
0.000000
0.000000
0.000000
0.049180
0.000000
0.000000
0.061538
0.088235
0.076923
0.117647
0.096774
0.000000
0.000000
0.000000
0.000000
0.000000
0.000000
0.000000
0.000000
0.000000
0.000000
0.000000
0.000000
0.000000
0.000000
0.000000
0.049180
0.049180
0.000000
0.000000
0.000000
0.000000
0.000000
0.107692
0.092308
0.147059
0.076923
0.205882
0.000000
0.000000
0.000000
0.000000
0.000000
0.049180
0.049180
0.061538
0.061538
0.073529
0.061538
0.088235
0.088235
0.061538
0.046154
0.058824
0.058824
0.073529
0.058824
0.058824
0.088235
0.088235
0.088235
0.132353
0.117647
0.191176
0.000000
0.000000
0.000000
0.000000
0.000000
0.000000
0.000000
0.000000
0.000000
0.000000
0.000000
0.032787
0.000000
0.000000
0.000000
0.000000
0.000000
0.030769
0.015385
0.029412
0.000000
0.044118
0.191176
0.117647
0.455882
0.088235
0.088235
0.088235
0.455882
0.073529
0.088235
0.058824
0.058824
0.352941
0.088235
0.058824
0.500000
0.058824
0.044118
0.058824
0.073529
0.058824
0.044118
0.029412
0.000000
0.000000
0.000000
0.000000
0.000000
0.000000
0.000000
0.000000
0.000000
0.000000
0.000000
0.000000
0.014706
0.000000
0.000000
0.000000
0.014706
0.000000
0.044118
0.058824
0.014706
0.000000
0.029412
0.044118
0.014706
0.058824
0.058824
0.044118
0.044118
0.029412
0.088235
0.088235
0.029412
0.058824
0.073529
0.058824
0.044118
0.044118
0.058824
0.029412
0.029412
0.014706
0.000000
0.014706
0.014706
0.000000
0.014706
0.029412
0.088235
0.044118
0.058824
0.058824
0.058824
0.117647
0.147059
0.102941
0.147059
0.044118
0.044118
0.102941
0.029412
0.029412
0.029412
0.029412
0.014706
0.029412
0.102941
0.117647
0.088235
0.088235
0.102941
0.102941
0.029412
0.014706
0.000000
0.000000
0.000000
0.000000
0.132353
0.132353
0.073529
0.029412
0.044118
0.014706
0.014706
0.014706
0.029412
0.014706
0.014706
0.058824
0.000000
0.000000
0.000000
0.000000
0.000000
0.014706
0.000000
0.000000
0.000000
0.029412
0.000000
0.000000
0.000000
0.000000
0.000000
0.000000
0.000000
0.000000
0.000000
0.000000
0.032787
0.000000
0.000000
0.000000
0.000000
0.000000
0.000000
0.015385
0.030769
0.029412
0.046154
0.058824
0.000000
0.000000
0.000000
0.000000
0.000000
0.049180
0.049180
0.061538
0.061538
0.073529
0.061538
0.088235
0.088235
0.061538
0.076923
0.088235
0.147059
0.102941
0.205882
0.220588
0.147059
0.058824
0.073529
0.058824
0.088235
0.058824
0.000000
0.000000
0.000000
0.000000
0.000000
0.000000
0.000000
0.000000
0.000000
0.000000
0.049180
0.049180
0.000000
0.000000
0.000000
0.000000
0.000000
0.092308
0.107692
0.147059
0.112903
0.191176
0.073529
0.088235
0.500000
0.147059
0.250000
0.191176
0.455882
0.235294
0.191176
0.279412
0.411765
0.382353
0.191176
0.264706
0.455882
0.279412
0.294118
0.117647
0.279412
0.235294
0.338235
0.220588
0.000000
0.000000
0.000000
0.000000
0.000000
0.000000
0.000000
0.000000
0.000000
0.000000
0.000000
0.000000
0.000000
0.000000
0.000000
0.000000
0.000000
0.000000
0.000000
0.000000
0.000000
0.000000
0.000000
0.000000
0.000000
0.000000
0.000000
0.000000
0.000000
0.000000
0.000000
0.000000
0.000000
0.000000
0.000000
0.000000
0.000000
0.000000
0.000000
0.000000
0.000000
0.000000
0.000000
0.000000
0.000000
0.000000
0.000000
0.000000
0.000000
0.000000
0.000000
0.000000
0.000000
0.000000
0.000000
0.000000
0.000000
0.014706
0.000000
0.000000
0.014706
0.073529
0.014706
0.102941
0.029412
0.000000
0.000000
0.000000
0.014706
0.000000
0.000000
0.000000
0.044118
0.000000
0.102941
0.000000
0.044118
0.102941
0.102941
0.102941
0.176471
0.176471
0.000000
0.000000
0.044118
0.000000
0.102941
0.308824
0.308824
0.426471
0.308824
0.544118
0.000000
0.121951
0.068182
0.279070
0.132075
0.465116
0.360000
0.392857
0.250000
0.285714
0.442623
0.163934
0.209302
0.162791
0.200000
0.046512
0.160714
0.230769
0.323077
0.250000
0.323077
0.308824
0.000000
0.000000
0.000000
0.053571
0.000000
0.000000
0.114754
0.000000
0.015385
0.044118
0.046154
0.058824
0.102941
0.169231
0.000000
0.000000
0.014706
0.000000
0.014706
0.014706
0.073529
0.338235
0.250000
0.338235
0.161765
0.441176
0.000000
0.000000
0.000000
0.000000
0.000000
0.000000
0.000000
0.000000
0.000000
0.000000
0.000000
0.000000
0.000000
0.000000
0.000000
0.000000
0.000000
0.000000
0.000000
0.000000
0.000000
0.000000
0.411765
0.323529
0.367647
0.132353
0.352941
0.102941
0.132353
0.147059
0.176471
0.044118
0.147059
0.235294
0.044118
0.029412
0.029412
0.029412
0.029412
0.176471
0.161765
0.176471
0.058824
0.176471
0.023256
0.000000
0.000000
0.000000
0.000000
0.000000
0.000000
0.000000
0.000000
0.000000
0.000000
0.000000
0.000000
0.000000
0.000000
0.000000
0.000000
0.000000
0.000000
0.000000
0.014706
0.000000
0.000000
0.000000
0.000000
0.014706
0.044118
0.029412
0.029412
0.029412
0.058824
0.029412
0.029412
0.029412
0.029412
0.044118
0.014706
0.044118
0.029412
0.029412
0.088235
0.029412
0.088235
0.044118
0.161765
0.102941
0.044118
0.014706
0.014706
0.029412
0.044118
0.029412
0.117647
0.117647
0.250000
0.147059
0.308824
0.338235
0.176471
0.264706
0.323529
0.338235
0.235294
0.264706
0.338235
0.161765
0.176471
0.176471
0.117647
0.191176
0.058824
0.044118
0.191176
0.191176
0.235294
0.205882
0.338235
0.220588
0.014706
0.029412
0.014706
0.044118
0.058824
0.044118
0.029412
0.029412
0.044118
0.044118
0.044118
0.044118
0.044118
0.088235
0.029412
0.073529
0.058824
0.014706
0.029412
0.058824
0.044118
0.073529
0.000000
0.000000
0.000000
0.000000
0.000000
0.000000
0.000000
0.000000
0.000000
0.000000
0.000000
0.000000
0.000000
0.000000
0.000000
0.000000
0.000000
0.000000
0.000000
0.000000
0.000000
0.014706
0.093023
0.000000
0.053571
0.017857
0.178571
0.147541
0.032787
0.246154
0.092308
0.117647
0.061538
0.176471
0.132353
0.015385
0.338462
0.308824
0.308824
0.323529
0.220588
0.455882
0.235294
0.000000
0.073529
0.014706
0.117647
0.073529
0.139535
0.232558
0.200000
0.418605
0.303571
0.279070
0.340000
0.232143
0.339286
0.132075
0.147541
0.426230
0.121951
0.000000
0.068182
0.292308
0.169231
0.191176
0.117647
0.205882
0.264706
0.205882
0.264706
0.205882
0.294118
0.191176
0.191176
0.176471
0.132353
0.191176
0.250000
0.235294
0.441176
0.102941
0.102941
0.058824
0.014706
0.014706
0.000000
0.029412
0.014706
0.029412
0.014706
0.014706
0.014706
0.029412
0.029412
0.014706
0.029412
0.073529
0.058824
0.205882
0.176471
0.000000
0.000000
0.000000
0.029412
0.000000
0.235294
0.235294
0.294118
0.279412
0.426471
0.455882
0.220588
0.264706
0.485294
0.397059
0.323529
0.411765
0.382353
0.176471
0.176471
0.220588
0.132353
0.294118
0.044118
0.058824
0.352941
0.102941
0.176471
0.058824
0.352941
0.029412
0.323529
0.367647
0.411765
0.250000
0.264706
0.191176
0.191176
0.102941
0.191176
0.044118
0.044118
0.176471
0.117647
0.044118
0.044118
0.102941
0.044118
0.044118
0.088235
0.279412
0.161765
0.485294
0.294118
0.441176
0.558824
0.426471
0.529412
0.191176
0.323529
0.397059
0.220588
0.088235
0.132353
0.558824
0.426471
0.573529
VECTORS displacements double 
-0.002495 0.000000 0.000000 
0.002495 0.000000 0.000000 
0.002495 0.000000 0.000000 
-0.002495 0.000000 0.000000 
-0.002495 0.000000 0.000000 
-0.002495 0.000000 0.000000 
-0.002495 0.000000 0.000000 
-0.002495 0.000000 0.000000 
0.002403 0.003928 -0.000134 
-0.000489 0.003623 -0.000291 
-0.000401 0.003117 -0.000027 
-0.000379 0.002825 0.000346 
-0.000343 0.002684 0.000240 
-0.000305 0.002645 0.000192 
-0.000287 0.002572 -0.000113 
-0.000257 0.002584 0.000026 
-0.000217 0.002640 0.000092 
-0.000205 0.002714 -0.000184 
-0.000196 0.002813 0.000093 
-0.000217 0.002895 0.000353 
-0.000188 0.002951 -0.000006 
-0.000215 0.003073 0.000154 
-0.000185 0.003198 -0.000025 
-0.000196 0.003288 -0.000135 
-0.000202 0.003361 -0.000034 
-0.000171 0.003434 0.000269 
-0.000170 0.003532 0.000173 
-0.000202 0.003611 0.000063 
-0.000124 0.003812 -0.000123 
-0.000072 0.004174 0.000029 