# vtk DataFile Version 2.0
Solution time step = 399 
ASCII

DATASET UNSTRUCTURED_GRID
POINTS 2113 double
0.000000 0.000000 0.000000 
1.000000 0.000000 0.000000 
1.000000 1.000000 0.000000 
0.000000 1.000000 0.000000 
0.031250 0.000000 0.000000 
0.062500 0.000000 0.000000 
0.093750 0.000000 0.000000 
0.125000 0.000000 0.000000 
0.156250 0.000000 0.000000 
0.187500 0.000000 0.000000 
0.218750 0.000000 0.000000 
0.250000 0.000000 0.000000 
0.281250 0.000000 0.000000 
0.312500 0.000000 0.000000 
0.343750 0.000000 0.000000 
0.375000 0.000000 0.000000 
0.406250 0.000000 0.000000 
0.437500 0.000000 0.000000 
0.468750 0.000000 0.000000 
0.500000 0.000000 0.000000 
0.531250 0.000000 0.000000 
0.562500 0.000000 0.000000 
0.593750 0.000000 0.000000 
0.625000 0.000000 0.000000 
0.656250 0.000000 0.000000 
0.687500 0.000000 0.000000 
0.718750 0.000000 0.000000 
0.750000 0.000000 0.000000 
0.781250 0.000000 0.000000 
0.812500 0.000000 0.000000 
0.843750 0.000000 0.000000 
0.875000 0.000000 0.000000 
0.906250 0.000000 0.000000 
0.937500 0.000000 0.000000 
0.968750 0.000000 0.000000 
1.000000 0.031250 0.000000 
1.000000 0.062500 0.000000 
1.000000 0.093750 0.000000 
1.000000 0.125000 0.000000 
1.000000 0.156250 0.000000 
1.000000 0.187500 0.000000 
1.000000 0.218750 0.000000 
1.000000 0.250000 0.000000 
1.000000 0.281250 0.000000 
1.000000 0.312500 0.000000 
1.000000 0.343750 0.000000 
1.000000 0.375000 0.000000 
1.000000 0.406250 0.000000 
1.000000 0.437500 0.000000 
1.000000 0.468750 0.000000 
1.000000 0.500000 0.000000 
1.000000 0.531250 0.000000 
1.000000 0.562500 0.000000 
1.000000 0.593750 0.000000 
1.000000 0.625000 0.000000 
1.000000 0.656250 0.000000 
1.000000 0.687500 0.000000 
1.000000 0.718750 0.000000 
1.000000 0.750000 0.000000 
1.000000 0.781250 0.000000 
1.000000 0.812500 0.000000 
1.000000 0.843750 0.000000 
1.000000 0.875000 0.000000 
1.000000 0.906250 0.000000 
1.000000 0.937500 0.000000 
1.000000 0.968750 0.000000 
0.968750 1.000000 0.000000 
0.937500 1.000000 0.000000 
0.906250 1.000000 0.000000 
0.875000 1.000000 0.000000 
0.843750 1.000000 0.000000 
0.812500 1.000000 0.000000 
0.781250 1.000000 0.000000 
0.750000 1.000000 0.000000 
0.718750 1.000000 0.000000 
0.687500 1.000000 0.000000 
0.656250 1.000000 0.000000 
0.625000 1.000000 0.000000 
0.593750 1.000000 0.000000 
0.562500 1.000000 0.000000 
0.531250 1.000000 0.000000 
0.500000 1.000000 0.000000 
0.468750 1.000000 0.000000 
0.437500 1.000000 0.000000 
0.406250 1.000000 0.000000 
0.375000 1.000000 0.000000 
0.343750 1.000000 0.000000 
0.312500 1.000000 0.000000 
0.281250 1.000000 0.000000 
0.250000 1.000000 0.000000 
0.218750 1.000000 0.000000 
0.187500 1.000000 0.000000 
0.156250 1.000000 0.000000 
0.125000 1.000000 0.000000 
0.093750 1.000000 0.000000 
0.062500 1.000000 0.000000 
0.031250 1.000000 0.000000 
0.000000 0.968750 0.000000 
0.000000 0.937500 0.000000 
0.000000 0.906250 0.000000 
0.000000 0.875000 0.000000 
0.000000 0.843750 0.000000 
0.000000 0.812500 0.000000 
0.000000 0.781250 0.000000 
0.000000 0.750000 0.000000 
0.000000 0.718750 0.000000 
0.000000 0.687500 0.000000 
0.000000 0.656250 0.000000 
0.000000 0.625000 0.000000 
0.000000 0.593750 0.000000 
0.000000 0.562500 0.000000 
0.000000 0.531250 0.000000 
0.000000 0.500000 0.000000 
0.000000 0.468750 0.000000 
0.000000 0.437500 0.000000 
0.000000 0.406250 0.000000 
0.000000 0.375000 0.000000 
0.000000 0.343750 0.000000 
0.000000 0.312500 0.000000 
0.000000 0.281250 0.000000 
0.000000 0.250000 0.000000 
0.000000 0.218750 0.000000 
0.000000 0.187500 0.000000 
0.000000 0.156250 0.000000 
0.000000 0.125000 0.000000 
0.000000 0.093750 0.000000 
0.000000 0.062500 0.000000 
0.000000 0.031250 0.000000 
0.500000 0.500000 0.000000 
0.750000 0.250000 0.000000 
0.250000 0.250000 0.000000 
0.250000 0.750000 0.000000 
0.750000 0.750000 0.000000 
0.375000 0.125000 0.000000 
0.125000 0.125000 0.000000 
0.625000 0.125000 0.000000 
0.500000 0.250000 0.000000 
0.875000 0.125000 0.000000 
0.625000 0.375000 0.000000 
0.375000 0.375000 0.000000 
0.125000 0.375000 0.000000 
0.250000 0.500000 0.000000 
0.125000 0.625000 0.000000 
0.375000 0.625000 0.000000 
0.125000 0.875000 0.000000 
0.875000 0.375000 0.000000 
0.875000 0.625000 0.000000 
0.750000 0.500000 0.000000 
0.875000 0.875000 0.000000 
0.625000 0.625000 0.000000 
0.625000 0.875000 0.000000 
0.375000 0.875000 0.000000 
0.500000 0.750000 0.000000 
0.187500 0.062500 0.000000 
0.062500 0.062500 0.000000 
0.312500 0.062500 0.000000 
0.250000 0.125000 0.000000 
0.437500 0.062500 0.000000 
0.312500 0.187500 0.000000 
0.187500 0.187500 0.000000 
0.562500 0.062500 0.000000 
0.500000 0.125000 0.000000 
0.562500 0.187500 0.000000 
0.437500 0.187500 0.000000 
0.687500 0.187500 0.000000 
0.625000 0.250000 0.000000 
0.375000 0.250000 0.000000 
0.687500 0.062500 0.000000 
0.812500 0.062500 0.000000 
0.750000 0.125000 0.000000 
0.937500 0.062500 0.000000 
0.812500 0.187500 0.000000 
0.437500 0.312500 0.000000 
0.312500 0.312500 0.000000 
0.562500 0.312500 0.000000 
0.500000 0.375000 0.000000 
0.687500 0.312500 0.000000 
0.562500 0.437500 0.000000 
0.437500 0.437500 0.000000 
0.062500 0.187500 0.000000 
0.125000 0.250000 0.000000 
0.062500 0.312500 0.000000 
0.187500 0.312500 0.000000 
0.062500 0.437500 0.000000 
0.250000 0.375000 0.000000 
0.187500 0.437500 0.000000 
0.187500 0.562500 0.000000 
0.125000 0.500000 0.000000 
0.250000 0.625000 0.000000 
0.187500 0.687500 0.000000 
0.062500 0.562500 0.000000 
0.312500 0.437500 0.000000 
0.375000 0.500000 0.000000 
0.312500 0.562500 0.000000 
0.437500 0.562500 0.000000 
0.312500 0.687500 0.000000 
0.062500 0.687500 0.000000 
0.125000 0.750000 0.000000 
0.062500 0.812500 0.000000 
0.187500 0.812500 0.000000 
0.062500 0.937500 0.000000 
0.937500 0.187500 0.000000 
0.937500 0.312500 0.000000 
0.875000 0.250000 0.000000 
0.937500 0.437500 0.000000 
0.812500 0.312500 0.000000 
0.937500 0.562500 0.000000 
0.875000 0.500000 0.000000 
0.812500 0.562500 0.000000 
0.812500 0.437500 0.000000 
0.812500 0.687500 0.000000 
0.750000 0.625000 0.000000 
0.750000 0.375000 0.000000 
0.937500 0.687500 0.000000 
0.937500 0.812500 0.000000 
0.875000 0.750000 0.000000 
0.937500 0.937500 0.000000 
0.812500 0.812500 0.000000 
0.687500 0.437500 0.000000 
0.687500 0.562500 0.000000 
0.625000 0.500000 0.000000 
0.687500 0.687500 0.000000 
0.562500 0.562500 0.000000 
0.812500 0.937500 0.000000 
0.687500 0.937500 0.000000 
0.750000 0.875000 0.000000 
0.562500 0.937500 0.000000 
0.687500 0.812500 0.000000 
0.437500 0.937500 0.000000 
0.500000 0.875000 0.000000 
0.437500 0.812500 0.000000 
0.562500 0.812500 0.000000 
0.312500 0.812500 0.000000 
0.375000 0.750000 0.000000 
0.625000 0.750000 0.000000 
0.312500 0.937500 0.000000 
0.187500 0.937500 0.000000 
0.250000 0.875000 0.000000 
0.562500 0.687500 0.000000 
0.437500 0.687500 0.000000 
0.500000 0.625000 0.000000 
0.093750 0.031250 0.000000 
0.031250 0.031250 0.000000 
0.156250 0.031250 0.000000 
0.125000 0.062500 0.000000 
0.218750 0.031250 0.000000 
0.156250 0.093750 0.000000 
0.093750 0.093750 0.000000 
0.281250 0.031250 0.000000 
0.250000 0.062500 0.000000 
0.281250 0.093750 0.000000 
0.218750 0.093750 0.000000 
0.343750 0.093750 0.000000 
0.312500 0.125000 0.000000 
0.187500 0.125000 0.000000 
0.343750 0.031250 0.000000 
0.406250 0.031250 0.000000 
0.375000 0.062500 0.000000 
0.468750 0.031250 0.000000 
0.406250 0.093750 0.000000 
0.218750 0.156250 0.000000 
0.156250 0.156250 0.000000 
0.281250 0.156250 0.000000 
0.250000 0.187500 0.000000 
0.343750 0.156250 0.000000 
0.281250 0.218750 0.000000 
0.218750 0.218750 0.000000 
0.531250 0.031250 0.000000 
0.500000 0.062500 0.000000 
0.531250 0.093750 0.000000 
0.468750 0.093750 0.000000 
0.593750 0.093750 0.000000 
0.562500 0.125000 0.000000 
0.437500 0.125000 0.000000 
0.593750 0.156250 0.000000 
0.531250 0.156250 0.000000 
0.500000 0.187500 0.000000 
0.468750 0.156250 0.000000 
0.531250 0.218750 0.000000 
0.468750 0.218750 0.000000 
0.406250 0.156250 0.000000 
0.656250 0.156250 0.000000 
0.625000 0.187500 0.000000 
0.656250 0.218750 0.000000 
0.593750 0.218750 0.000000 
0.718750 0.218750 0.000000 
0.687500 0.250000 0.000000 
0.562500 0.250000 0.000000 
0.375000 0.187500 0.000000 
0.406250 0.218750 0.000000 
0.343750 0.218750 0.000000 
0.437500 0.250000 0.000000 
0.312500 0.250000 0.000000 
0.593750 0.031250 0.000000 
0.656250 0.031250 0.000000 
0.625000 0.062500 0.000000 
0.718750 0.031250 0.000000 
0.656250 0.093750 0.000000 
0.781250 0.031250 0.000000 
0.750000 0.062500 0.000000 
0.781250 0.093750 0.000000 
0.718750 0.093750 0.000000 
0.843750 0.093750 0.000000 
0.812500 0.125000 0.000000 
0.687500 0.125000 0.000000 
0.843750 0.031250 0.000000 
0.906250 0.031250 0.000000 
0.875000 0.062500 0.000000 
0.968750 0.031250 0.000000 
0.906250 0.093750 0.000000 
0.718750 0.156250 0.000000 
0.781250 0.156250 0.000000 
0.750000 0.187500 0.000000 
0.843750 0.156250 0.000000 
0.781250 0.218750 0.000000 
0.343750 0.281250 0.000000 
0.281250 0.281250 0.000000 
0.406250 0.281250 0.000000 
0.375000 0.312500 0.000000 
0.468750 0.281250 0.000000 
0.406250 0.343750 0.000000 
0.343750 0.343750 0.000000 
0.531250 0.281250 0.000000 
0.500000 0.312500 0.000000 
0.531250 0.343750 0.000000 
0.468750 0.343750 0.000000 
0.593750 0.343750 0.000000 
0.562500 0.375000 0.000000 
0.437500 0.375000 0.000000 
0.593750 0.281250 0.000000 
0.656250 0.281250 0.000000 
0.625000 0.312500 0.000000 
0.718750 0.281250 0.000000 
0.656250 0.343750 0.000000 
0.468750 0.406250 0.000000 
0.406250 0.406250 0.000000 
0.531250 0.406250 0.000000 
0.500000 0.437500 0.000000 
0.593750 0.406250 0.000000 
0.531250 0.468750 0.000000 
0.468750 0.468750 0.000000 
0.031250 0.093750 0.000000 
0.062500 0.125000 0.000000 
0.031250 0.156250 0.000000 
0.093750 0.156250 0.000000 
0.031250 0.218750 0.000000 
0.125000 0.187500 0.000000 
0.093750 0.218750 0.000000 
0.093750 0.281250 0.000000 
0.062500 0.250000 0.000000 
0.125000 0.312500 0.000000 
0.093750 0.343750 0.000000 
0.031250 0.281250 0.000000 
[...]
POINT_DATA 2113
SCALARS damage double
LOOKUP_TABLE default
0.000000
0.000000
0.000000
0.000000
0.000000
0.060606
0.189189
0.378378
0.351351
0.135135
0.081081
0.000000
0.000000
0.000000
0.000000
0.000000
0.000000
0.000000
0.000000
0.000000
0.000000
0.000000
0.000000
0.000000
0.000000
0.000000
0.000000
0.027027
0.081081
0.135135
0.405405
0.378378
0.189189
0.060606
0.000000
0.000000
0.000000
0.000000
0.000000
0.000000
0.000000
0.000000
0.000000
0.000000
0.000000
0.000000
0.000000
0.000000
0.000000
0.000000
0.000000
0.000000
0.000000
0.000000
0.000000
0.000000
0.000000
0.000000
0.000000
0.000000
0.000000
0.000000
0.000000
0.000000
0.000000
0.000000
0.000000
0.060606
0.189189
0.378378
0.378378
0.135135
0.108108
0.000000
0.000000
0.000000
0.000000
0.027027
0.000000
0.000000
0.000000
0.000000
0.000000
0.000000
0.000000
0.000000
0.000000
0.000000
0.000000
0.027027
0.081081
0.162162
0.351351
0.378378
0.189189
0.060606
0.000000
0.000000
0.000000
0.000000
0.000000
0.000000
0.000000
0.000000
0.000000
0.000000
0.000000
0.000000
0.000000
0.000000
0.000000
0.000000
0.000000
0.000000
0.000000
0.000000
0.000000
0.000000
0.000000
0.000000
0.000000
0.000000
0.000000
0.000000
0.000000
0.000000
0.000000
0.000000
0.544118
0.088235
0.044118
0.088235
0.014706
0.044118
0.191176
0.000000
0.161765
0.235294
0.000000
0.000000
0.044118
0.000000
0.058824
0.000000
0.250000
0.058824
0.029412
0.000000
0.176471
0.000000
0.058824
0.014706
0.117647
0.278689
0.055556
0.000000
0.132353
0.000000
0.250000
0.352941
0.000000
0.000000
0.029412
0.073529
0.014706
0.014706
0.279412
0.000000
0.229508
0.058824
0.055556
0.426471
0.294118
0.000000
0.102941
0.558824
0.000000
0.176471
0.102941
0.049180
0.073529
0.016393
0.029412
0.000000
0.000000
0.044118
0.044118
0.014706
0.014706
0.147059
0.000000
0.000000
0.000000
0.000000
0.102941
0.000000
0.049180
0.117647
0.049180
0.411765
0.055556
0.049180
0.049180
0.117647
0.000000
0.102941
0.000000
0.014706
0.044118
0.044118
0.029412
0.000000
0.000000
0.016393
0.049180
0.073529
0.055556
0.250000
0.000000
0.000000
0.000000
0.000000
0.176471
0.262295
0.000000
0.132353
0.000000
0.205882
0.000000
0.000000
0.044118
0.117647
0.014706
0.044118
0.279412
0.000000
0.213115
0.044118
0.294118
0.088235
0.529412
0.200000
0.000000
0.380000
0.278689
0.100000
0.441176
0.147059
0.000000
0.032787
0.058824
0.132353
0.000000
0.044118
0.338235
0.000000
0.000000
0.000000
0.000000
0.000000
0.264706
0.455882
0.294118
0.161765
0.147059
0.117647
0.058824
0.000000
0.000000
0.000000
0.000000
0.000000
0.000000
0.000000
0.029412
0.014706
0.058824
0.000000
0.088235
0.147059
0.044118
0.014706
0.029412
0.029412
0.014706
0.088235
0.014706
0.088235
0.220588
0.235294
0.235294
0.264706
0.117647
0.000000
0.000000
0.000000
0.000000
0.000000
0.100000
0.032787
0.132353
0.029412
0.455882
0.411765
0.014706
0.380000
0.200000
0.295082
0.000000
0.176471
0.058824
0.176471
0.132353
0.441176
0.205882
0.132353
0.000000
0.264706
0.117647
0.264706
0.102941
0.000000
0.147059
0.294118
0.250000
0.352941
0.014706
0.132353
0.176471
0.029412
0.014706
0.000000
0.029412
0.000000
0.323529
0.000000
0.397059
0.558824
0.044118
0.426471
0.308824
0.000000
0.049180
0.000000
0.088235
0.000000
0.102941
0.073529
0.044118
0.049180
0.058824
0.029412
0.000000
0.455882
0.058824
0.470588
0.044118
0.088235
0.000000
0.000000
0.000000
0.000000
0.000000
0.000000
0.029412
0.014706
0.044118
0.000000
0.000000
0.044118
0.000000
0.044118
0.044118
0.044118
0.073529
0.029412
0.014706
0.014706
0.029412
0.044118
0.029412
0.058824
0.088235
0.485294
0.000000
0.000000
0.000000
0.014706
0.000000
0.000000
0.000000
0.000000
0.000000
0.000000
0.000000
0.000000
0.000000
0.000000
0.000000
0.000000
0.000000
0.000000
0.102941
0.000000
0.308824
0.000000
0.000000
0.000000
0.000000
0.000000
0.029412
0.000000
0.016393
0.000000
0.044118
0.000000
0.073529
0.073529
0.088235
0.049180
0.205882
0.132353
0.000000
0.470588
0.397059
0.455882
0.250000
0.441176
0.000000
0.049180
0.000000
0.176471
0.000000
0.000000
0.000000
0.049180
0.000000
0.117647
0.000000
0.049180
0.073529
0.088235
0.044118
0.073529
0.161765
0.000000
0.000000
0.016393
0.000000
0.014706
0.455882
0.470588
0.411765
0.500000
0.058824
0.000000
0.000000
0.000000
0.000000
0.000000
0.014706
0.029412
0.044118
0.044118
0.044118
0.044118
0.000000
0.000000
0.073529
0.058824
0.044118
0.029412
0.000000
0.044118
0.000000
0.000000
0.029412
0.029412
0.058824
0.000000
0.044118
0.000000
0.000000
0.000000
0.000000
0.014706
0.000000
0.049180
0.073529
0.044118
0.088235
0.102941
0.058824
0.000000
0.000000
0.049180
0.000000
0.132353
0.470588
0.455882
0.044118
0.455882
0.044118
0.000000
0.000000
0.000000
0.000000
0.000000
0.000000
0.000000
0.000000
0.000000
0.000000
0.000000
0.000000
0.000000
0.000000
0.000000
0.000000
0.000000
0.044118
0.044118
0.176471
0.044118
0.411765
0.200000
0.400000
0.245902
0.120000
0.441176
0.000000
0.032787
0.058824
0.176471
0.000000
0.073529
0.397059
0.000000
0.000000
0.000000
0.000000
0.000000
0.147059
0.279412
0.102941
0.147059
0.044118
0.000000
0.000000
0.000000
0.000000
0.000000
0.014706
0.000000
0.029412
0.000000
0.044118
0.014706
0.029412
0.117647
0.117647
0.014706
0.014706
0.044118
0.029412
0.102941
0.014706
0.058824
0.220588
0.264706
0.220588
0.308824
0.073529
0.000000
0.000000
0.000000
0.000000
0.000000
0.100000
0.000000
0.117647
0.000000
0.470588
0.397059
0.000000
0.380000
0.200000
0.311475
0.073529
0.191176
0.117647
0.102941
0.250000
0.117647
0.294118
0.117647
0.088235
0.308824
0.220588
0.397059
0.000000
0.088235
0.220588
0.014706
0.014706
0.029412
0.411765
0.308824
0.544118
0.000000
0.000000
0.121951
0.068182
0.279070
0.132075
0.000000
0.465116
0.360000
0.357143
0.250000
0.285714
0.426230
0.163934
0.209302
0.139535
0.200000
0.046512
0.160714
0.200000
0.112903
0.276923
0.220588
0.338462
0.250000
0.161765
0.000000
0.000000
0.000000
0.053571
0.000000
0.016393
0.114754
0.000000
0.061538
0.073529
0.092308
0.088235
0.117647
0.169231
0.000000
0.000000
0.014706
0.058824
0.000000
0.044118
0.147059
0.441176
0.352941
0.352941
0.220588
0.441176
0.000000
0.000000
0.000000
0.000000
0.000000
0.000000
0.000000
0.000000
0.000000
0.000000
0.000000
0.000000
0.000000
0.000000
0.000000
0.000000
0.000000
0.000000
0.000000
0.000000
0.000000
0.000000
0.250000
0.205882
0.250000
0.441176
0.191176
0.220588
0.176471
0.205882
0.235294
0.235294
0.176471
0.264706
0.191176
0.088235
0.117647
0.132353
0.205882
0.058824
0.235294
0.088235
0.073529
0.147059
0.102941
0.176471
0.058824
0.044118
0.000000
0.000000
0.000000
0.000000
0.000000
0.000000
0.000000
0.000000
0.000000
0.000000
0.000000
0.000000
0.000000
0.000000
0.000000
0.000000
0.000000
0.000000
0.000000
0.000000
0.000000
0.000000
0.000000
0.000000
0.000000
0.014706
0.014706
0.014706
0.029412
0.014706
0.029412
0.029412
0.000000
0.044118
0.014706
0.014706
0.014706
0.058824
0.014706
0.014706
0.058824
0.044118
0.117647
0.044118
0.088235
0.176471
0.176471
0.014706
0.014706
0.014706
0.058824
0.044118
0.014706
0.029412
0.014706
0.029412
0.014706
0.029412
0.014706
0.014706
0.014706
0.014706
0.029412
0.014706
0.029412
0.058824
0.044118
0.014706
0.029412
0.014706
0.073529
0.058824
0.058824
0.044118
0.058824
0.117647
0.029412
0.102941
0.088235
0.088235
0.161765
0.117647
0.264706
0.147059
0.235294
0.338235
0.323529
0.367647
0.250000
0.279412
0.147059
0.220588
0.264706
0.191176
0.352941
0.176471
0.191176
0.088235
0.191176
0.029412
0.000000
0.000000
0.000000
0.000000
0.000000
0.000000
0.000000
0.000000
0.000000
0.000000
0.000000
0.000000
0.000000
0.000000
0.000000
0.000000
0.000000
0.000000
0.000000
0.000000
0.000000
0.000000
0.069767
0.000000
0.053571
0.000000
0.160714
0.131148
0.016393
0.169231
0.061538
0.058824
0.030769
0.102941
0.044118
0.000000
0.323077
0.426471
0.323529
0.220588
0.279412
0.441176
0.161765
0.000000
0.000000
0.000000
0.058824
0.014706
0.116279
0.209302
0.180000
0.465116
0.285714
0.279070
0.360000
0.267857
0.375000
0.132075
0.180328
0.426230
0.121951
0.000000
0.068182
0.000000
0.000000
0.338462
0.230769
0.264706
0.112903
0.205882
0.000000
0.014706
0.014706
0.088235
0.044118
0.132353
0.088235
0.147059
0.132353
0.294118
0.205882
0.117647
0.205882
0.323529
0.338235
0.250000
0.308824
0.117647
0.161765
0.161765
0.235294
0.073529
0.029412
0.000000
0.117647
0.058824
0.191176
0.044118
0.000000
0.250000
0.205882
0.205882
0.102941
0.264706
0.191176
0.058824
0.352941
0.250000
0.338235
0.205882
0.323529
0.044118
0.000000
0.117647
0.044118
0.191176
0.044118
0.000000
0.117647
0.220588
0.220588
0.264706
0.088235
0.205882
0.338235
0.161765
0.352941
0.411765
0.382353
0.367647
0.411765
0.279412
0.058824
0.102941
0.058824
0.205882
0.000000
0.029412
0.352941
0.220588
0.264706
0.147059
0.367647
0.058824
0.088235
0.073529
0.088235
0.014706
0.073529
0.029412
0.014706
0.000000
0.014706
0.000000
0.000000
0.014706
0.014706
0.000000
0.000000
0.044118
0.000000
0.000000
0.000000
0.000000
0.000000
0.000000
0.088235
0.000000
0.220588
0.132353
0.426471
0.191176
0.044118
0.485294
0.529412
0.529412
0.411765
0.294118
0.397059
0.308824
0.250000
0.088235
0.161765
0.000000
0.102941
0.411765
0.176471
0.558824
0.558824
0.308824
0.544118
0.411765
0.000000
0.000000
0.000000
0.000000
0.000000
0.049180
0.000000
0.000000
0.000000
0.049180
0.000000
0.000000
0.092308
0.117647
0.076923
0.147059
0.061538
0.000000
0.000000
0.000000
0.000000
0.000000
0.147059
0.102941
0.088235
0.073529
0.088235
0.073529
0.061538
0.058824
0.058824
0.046154
0.061538
0.030769
0.032787
0.049180
0.058824
0.058824
0.058824
0.044118
0.058824
0.044118
0.015385
0.000000
0.000000
0.000000
0.000000
0.000000
0.147059
0.455882
0.088235
0.117647
0.088235
0.058824
0.205882
0.088235
0.455882
0.029412
0.102941
0.073529
0.058824
0.058824
0.058824
0.029412
0.029412
0.058824
0.147059
0.058824
0.132353
0.044118
0.000000
0.000000
0.000000
0.000000
0.000000
0.000000
0.000000
0.000000
0.000000
0.000000
0.000000
0.000000
0.000000
0.000000
0.000000
0.000000
0.000000
0.000000
0.000000
0.000000
0.000000
0.000000
0.014706
0.029412
0.029412
0.029412
0.000000
0.014706
0.029412
0.000000
0.000000
0.029412
0.014706
0.029412
0.044118
0.029412
0.000000
0.000000
0.000000
0.000000
0.000000
0.000000
0.014706
0.102941
0.044118
0.044118
0.088235
0.029412
0.000000
0.000000
0.014706
0.014706
0.029412
0.044118
0.044118
0.058824
0.058824
0.044118
0.073529
0.029412
0.029412
0.073529
0.088235
0.073529
0.044118
0.029412
0.058824
0.058824
0.014706
0.044118
0.029412
0.029412
0.014706
0.014706
0.000000
0.014706
0.014706
0.014706
0.014706
0.029412
0.029412
0.029412
0.029412
0.029412
0.029412
0.073529
0.058824
0.029412
0.029412
0.073529
0.058824
0.102941
0.073529
0.073529
0.088235
0.382353
0.132353
0.132353
0.058824
0.058824
0.000000
0.000000
0.000000
0.000000
0.000000
0.000000
0.000000
0.000000
0.000000
0.000000
0.000000
0.000000
0.014706
0.014706
0.000000
0.044118
0.000000
0.000000
0.000000
0.000000
0.000000
0.000000
0.000000
0.000000
0.000000
0.000000
0.000000
0.000000
0.000000
0.000000
0.000000
0.000000
0.000000
0.000000
0.000000
0.000000
0.000000
0.000000
0.000000
0.000000
0.000000
0.000000
0.000000
0.000000
0.000000
0.000000
0.000000
0.000000
0.000000
0.000000
0.000000
0.000000
0.000000
0.000000
0.000000
0.000000
0.000000
0.000000
0.000000
0.000000
0.000000
0.000000
0.000000
0.000000
0.000000
0.000000
0.000000
0.000000
0.000000
0.000000
0.000000
0.000000
0.000000
0.044118
0.000000
0.102941
0.044118
0.044118
0.000000
0.102941
0.044118
0.000000
0.176471
0.308824
0.176471
0.426471
0.176471
0.000000
0.000000
0.000000
0.044118
0.000000
0.000000
0.000000
0.014706
0.000000
0.014706
0.000000
0.000000
0.000000
0.000000
0.000000
0.000000
0.014706
0.000000
0.000000
0.000000
0.000000
0.000000
0.014706
0.014706
0.029412
0.014706
0.058824
0.000000
0.000000
0.000000
0.000000
0.000000
0.000000
0.000000
0.000000
0.000000
0.032787
0.000000
0.000000
0.015385
0.029412
0.030769
0.058824
0.046154
0.000000
0.000000
0.000000
0.000000
0.000000
0.058824
0.058824
0.073529
0.058824
0.088235
0.088235
0.061538
0.088235
0.073529
0.061538
0.061538
0.076923
0.049180
0.049180
0.161765
0.117647
0.161765
0.102941
0.220588
0.205882
0.092308
0.000000
0.000000
0.000000
0.000000
0.000000
0.058824
0.485294
0.088235
0.058824
0.102941
0.352941
0.058824
0.102941
0.455882
0.426471
0.191176
0.117647
0.088235
0.088235
0.117647
0.088235
0.220588
0.205882
0.455882
0.250000
0.323529
0.279412
0.000000
0.000000
0.000000
0.000000
0.000000
0.049180
0.000000
0.000000
0.000000
0.049180
0.000000
0.000000
0.107692
0.161765
0.107692
0.205882
0.112903
0.000000
0.000000
0.000000
0.000000
0.000000
0.000000
0.000000
0.000000
0.000000
0.000000
0.000000
0.000000
0.000000
0.000000
0.000000
0.049180
0.049180
0.000000
0.000000
0.000000
0.000000
0.000000
0.107692
0.107692
0.147059
0.092308
0.161765
0.000000
0.000000
0.000000
0.000000
0.000000
0.049180
0.049180
0.061538
0.061538
0.073529
0.061538
0.088235
0.088235
0.076923
0.046154
0.058824
0.058824
0.073529
0.044118
0.058824
0.088235
0.102941
0.102941
0.132353
0.132353
0.176471
0.000000
0.000000
0.000000
0.000000
0.000000
0.000000
0.000000
0.000000
0.000000
0.000000
0.000000
0.032787
0.000000
0.000000
0.000000
0.000000
0.000000
0.030769
0.015385
0.029412
0.000000
0.044118
0.250000
0.205882
0.455882
0.132353
0.191176
0.102941
0.455882
0.058824
0.102941
0.058824
0.338235
0.426471
0.088235
0.058824
0.485294
0.058824
0.102941
0.088235
0.058824
0.073529
0.088235
0.058824
0.000000
0.000000
0.000000
0.000000
0.000000
0.000000
0.000000
0.000000
0.000000
0.000000
0.000000
0.000000
0.000000
0.000000
0.000000
0.000000
0.000000
0.000000
0.000000
0.014706
0.014706
0.000000
0.014706
0.014706
0.014706
0.058824
0.029412
0.029412
0.044118
0.029412
0.058824
0.058824
0.029412
0.044118
0.073529
0.073529
0.044118
0.044118
0.058824
0.029412
0.014706
0.014706
0.000000
0.014706
0.000000
0.000000
0.014706
0.029412
0.073529
0.044118
0.102941
0.058824
0.044118
0.044118
0.073529
0.073529
0.132353
0.044118
0.044118
0.029412
0.029412
0.000000
0.014706
0.000000
0.000000
0.014706
0.029412
0.029412
0.029412
0.014706
0.029412
0.000000
0.000000
0.000000
0.000000
0.000000
0.000000
0.000000
0.117647
0.132353
0.132353
0.029412
0.044118
0.014706
0.029412
0.029412
0.029412
0.029412
0.029412
0.058824
0.000000
0.000000
0.014706
0.000000
0.000000
0.102941
0.073529
0.058824
0.014706
0.044118
0.000000
0.000000
0.000000
0.000000
0.000000
0.000000
0.000000
0.000000
0.000000
0.000000
0.000000
0.000000
0.000000
0.000000
0.000000
0.000000
0.000000
0.000000
0.000000
0.000000
0.015385
0.014706
0.000000
0.000000
0.000000
0.000000
0.000000
0.049180
0.032787
0.061538
0.061538
0.058824
0.046154
0.073529
0.058824
0.030769
0.061538
0.073529
0.088235
0.088235
0.117647
0.117647
0.088235
0.029412
0.058824
0.044118
0.058824
0.058824
0.000000
0.000000
0.000000
0.000000
0.000000
0.000000
0.000000
0.000000
0.000000
0.000000
0.049180
0.049180
0.000000
0.000000
0.000000
0.000000
0.000000
0.076923
0.092308
0.102941
0.112903
0.117647
0.058824
0.058824
0.117647
0.058824
0.102941
0.088235
0.470588
0.147059
0.102941
0.117647
0.058824
0.029412
0.073529
0.132353
0.455882
0.191176
0.176471
0.044118
0.073529
0.044118
0.073529
0.029412
0.029412
0.014706
0.014706
0.000000
0.000000
0.000000
0.000000
0.000000
0.000000
0.000000
0.000000
0.000000
0.000000
0.000000
0.000000
0.000000
0.000000
0.000000
0.000000
0.000000
0.000000
0.000000
0.000000
0.000000
0.000000
0.000000
0.000000
0.000000
0.000000
0.000000
0.000000
0.000000
0.000000
0.000000
0.000000
0.000000
0.000000
0.000000
0.000000
0.000000
0.000000
0.000000
0.000000
0.000000
0.000000
0.000000
0.000000
0.000000
0.000000
0.000000
0.000000
0.000000
0.000000
0.000000
0.000000
0.000000
0.000000
0.000000
0.000000
0.000000
0.000000
0.000000
0.000000
0.000000
0.000000
0.000000
0.000000
0.000000
0.000000
0.000000
0.000000
0.000000
0.044118
0.000000
0.102941
0.000000
0.044118
0.102941
0.102941
0.102941
0.176471
0.176471
0.000000
0.000000
0.044118
0.000000
0.102941
0.308824
0.308824
0.426471
0.308824
0.558824
0.000000
0.121951
0.068182
0.279070
0.132075
0.465116
0.360000
0.321429
0.250000
0.285714
0.442623
0.147541
0.209302
0.139535
0.200000
0.046512
0.178571
0.169231
0.261538
0.176471
0.338462
0.220588
0.000000
0.000000
0.017857
0.053571
0.000000
0.032787
0.180328
0.030769
0.046154
0.117647
0.107692
0.117647
0.117647
0.215385
0.015385
0.000000
0.014706
0.058824
0.000000
0.044118
0.161765
0.352941
0.294118
0.338235
0.308824
0.441176
0.000000
0.000000
0.000000
0.000000
0.000000
0.023256
0.000000
0.000000
0.000000
0.000000
0.000000
0.000000
0.000000
0.000000
0.000000
0.000000
0.000000
0.000000
0.000000
0.000000
0.000000
0.014706
0.191176
0.205882
0.441176
0.250000
0.147059
0.176471
0.220588
0.161765
0.161765
0.161765
0.161765
0.102941
0.147059
0.132353
0.279412
0.102941
0.294118
0.073529
0.073529
0.058824
0.147059
0.014706
0.000000
0.000000
0.000000
0.000000
0.000000
0.000000
0.000000
0.000000
0.000000
0.000000
0.000000
0.000000
0.000000
0.000000
0.000000
0.000000
0.000000
0.000000
0.000000
0.014706
0.000000
0.000000
0.000000
0.000000
0.000000
0.044118
0.014706
0.014706
0.014706
0.014706
0.014706
0.014706
0.014706
0.029412
0.014706
0.014706
0.014706
0.044118
0.058824
0.000000
0.058824
0.029412
0.073529
0.044118
0.014706
0.117647
0.117647
0.014706
0.058824
0.058824
0.102941
0.088235
0.000000
0.014706
0.014706
0.029412
0.014706
0.029412
0.014706
0.029412
0.014706
0.014706
0.014706
0.058824
0.029412
0.014706
0.044118
0.029412
0.044118
0.029412
0.102941
0.058824
0.014706
0.029412
0.029412
0.029412
0.044118
0.029412
0.147059
0.147059
0.191176
0.220588
0.338235
0.205882
0.264706
0.426471
0.367647
0.558824
0.220588
0.205882
0.191176
0.191176
0.352941
0.191176
0.514706
0.132353
0.132353
0.058824
0.176471
0.000000
0.000000
0.000000
0.000000
0.000000
0.000000
0.000000
0.000000
0.000000
0.000000
0.000000
0.000000
0.000000
0.000000
0.000000
0.000000
0.000000
0.000000
0.000000
0.000000
0.000000
0.000000
0.000000
0.069767
0.000000
0.053571
0.000000
0.160714
0.098361
0.000000
0.153846
0.046154
0.014706
0.000000
0.073529
0.029412
0.000000
0.338462
0.279412
0.352941
0.176471
0.294118
0.455882
0.132353
0.000000
0.000000
0.000000
0.044118
0.014706
0.139535
0.209302
0.200000
0.465116
0.267857
0.279070
0.360000
0.232143
0.392857
0.132075
0.163934
0.442623
0.121951
0.000000
0.068182
0.323077
0.230769
0.264706
0.014706
0.029412
0.014706
0.073529
0.044118
0.117647
0.088235
0.132353
0.117647
0.294118
0.191176
0.073529
0.220588
0.367647
0.308824
0.132353
0.161765
0.147059
0.014706
0.088235
0.029412
0.191176
0.029412
0.250000
0.191176
0.191176
0.102941
0.279412
0.191176
0.044118
0.455882
0.264706
0.441176
0.220588
0.382353
0.044118
0.117647
0.044118
0.220588
0.044118
0.102941
0.191176
0.220588
0.294118
0.102941
0.191176
0.382353
0.132353
0.279412
0.441176
0.514706
0.352941
0.514706
0.323529
0.029412
0.102941
0.029412
0.147059
0.000000
0.000000
0.279412
0.279412
0.367647
0.176471
0.426471
0.088235
0.044118
0.058824
0.014706
0.029412
0.058824
0.029412
0.044118
0.014706
0.029412
0.014706
0.014706
0.014706
0.014706
0.000000
0.000000
0.000000
0.000000
0.000000
0.132353
0.323529
0.191176
0.514706
0.308824
0.397059
0.544118
0.411765
0.544118
0.176471
0.308824
0.426471
0.161765
0.044118
0.102941
0.573529
0.411765
0.544118
VECTORS displacements double 
-0.001995 0.000000 0.000000 
0.001995 0.000000 0.000000 
0.001995 0.000000 0.000000 
-0.001995 0.000000 0.000000 
-0.001995 0.000000 0.000000 
-0.001995 0.000000 0.000000 
-0.001995 0.000000 0.000000 
-0.001995 0.000000 0.000000 
0.002174 0.004356 -0.000430 
0.000024 0.003536 -0.000173 
0.000059 0.003358 -0.000080 
0.000073 0.003230 0.000036 
0.000075 0.003096 0.000085 
0.000075 0.003014 -0.000070 
0.000100 0.002861 -0.000033 
0.000083 0.002766 0.000048 
0.000101 0.002643 0.000203 
0.000115 0.002540 0.000007 
0.000121 0.002442 -0.000027 
0.000126 0.002365 0.000323 
0.000153 0.002253 0.000261 
0.000176 0.002175 0.000062 
0.000238 0.002152 0.000113 
0.000243 0.002095 0.000094 
0.000316 0.002132 0.000011 
0.000343 0.002240 -0.000090 
0.000408 0.002372 -0.000234 
0.000385 0.002442 -0.000140 
0.000433 0.002669 -0.000080 
0.000473 0.002901 -0.000087 
-0.002485 0.003861 -0.000021 