# vtk DataFile Version 2.0
Solution time step = 499 
ASCII

DATASET UNSTRUCTURED_GRID
POINTS 2113 double
0.000000 0.000000 0.000000 
1.000000 0.000000 0.000000 
1.000000 1.000000 0.000000 
0.000000 1.000000 0.000000 
0.031250 0.000000 0.000000 
0.062500 0.000000 0.000000 
0.093750 0.000000 0.000000 
0.125000 0.000000 0.000000 
0.156250 0.000000 0.000000 
0.187500 0.000000 0.000000 
0.218750 0.000000 0.000000 
0.250000 0.000000 0.000000 
0.281250 0.000000 0.000000 
0.312500 0.000000 0.000000 
0.343750 0.000000 0.000000 
0.375000 0.000000 0.000000 
0.406250 0.000000 0.000000 
0.437500 0.000000 0.000000 
0.468750 0.000000 0.000000 
0.500000 0.000000 0.000000 
0.531250 0.000000 0.000000 
0.562500 0.000000 0.000000 
0.593750 0.000000 0.000000 
0.625000 0.000000 0.000000 
0.656250 0.000000 0.000000 
0.687500 0.000000 0.000000 
0.718750 0.000000 0.000000 
0.750000 0.000000 0.000000 
0.781250 0.000000 0.000000 
0.812500 0.000000 0.000000 
0.843750 0.000000 0.000000 
0.875000 0.000000 0.000000 
0.906250 0.000000 0.000000 
0.937500 0.000000 0.000000 
0.968750 0.000000 0.000000 
1.000000 0.031250 0.000000 
1.000000 0.062500 0.000000 
1.000000 0.093750 0.000000 
1.000000 0.125000 0.000000 
1.000000 0.156250 0.000000 
1.000000 0.187500 0.000000 
1.000000 0.218750 0.000000 
1.000000 0.250000 0.000000 
1.000000 0.281250 0.000000 
1.000000 0.312500 0.000000 
1.000000 0.343750 0.000000 
1.000000 0.375000 0.000000 
1.000000 0.406250 0.000000 
1.000000 0.437500 0.000000 
1.000000 0.468750 0.000000 
1.000000 0.500000 0.000000 
1.000000 0.531250 0.000000 
1.000000 0.562500 0.000000 
1.000000 0.593750 0.000000 
1.000000 0.625000 0.000000 
1.000000 0.656250 0.000000 
1.000000 0.687500 0.000000 
1.000000 0.718750 0.000000 
1.000000 0.750000 0.000000 
1.000000 0.781250 0.000000 
1.000000 0.812500 0.000000 
1.000000 0.843750 0.000000 
1.000000 0.875000 0.000000 
1.000000 0.906250 0.000000 
1.000000 0.937500 0.000000 
1.000000 0.968750 0.000000 
0.968750 1.000000 0.000000 
0.937500 1.000000 0.000000 
0.906250 1.000000 0.000000 
0.875000 1.000000 0.000000 
0.843750 1.000000 0.000000 
0.812500 1.000000 0.000000 
0.781250 1.000000 0.000000 
0.750000 1.000000 0.000000 
0.718750 1.000000 0.000000 
0.687500 1.000000 0.000000 
0.656250 1.000000 0.000000 
0.625000 1.000000 0.000000 
0.593750 1.000000 0.000000 
0.562500 1.000000 0.000000 
0.531250 1.000000 0.000000 
0.500000 1.000000 0.000000 
0.468750 1.000000 0.000000 
0.437500 1.000000 0.000000 
0.406250 1.000000 0.000000 
0.375000 1.000000 0.000000 
0.343750 1.000000 0.000000 
0.312500 1.000000 0.000000 
0.281250 1.000000 0.000000 
0.250000 1.000000 0.000000 
0.218750 1.000000 0.000000 
0.187500 1.000000 0.000000 
0.156250 1.000000 0.000000 
0.125000 1.000000 0.000000 
0.093750 1.000000 0.000000 
0.062500 1.000000 0.000000 
0.031250 1.000000 0.000000 
0.000000 0.968750 0.000000 
0.000000 0.937500 0.000000 
0.000000 0.906250 0.000000 
0.000000 0.875000 0.000000 
0.000000 0.843750 0.000000 
0.000000 0.812500 0.000000 
0.000000 0.781250 0.000000 
0.000000 0.750000 0.000000 
0.000000 0.718750 0.000000 
0.000000 0.687500 0.000000 
0.000000 0.656250 0.000000 
0.000000 0.625000 0.000000 
0.000000 0.593750 0.000000 
0.000000 0.562500 0.000000 
0.000000 0.531250 0.000000 
0.000000 0.500000 0.000000 
0.000000 0.468750 0.000000 
0.000000 0.437500 0.000000 
0.000000 0.406250 0.000000 
0.000000 0.375000 0.000000 
0.000000 0.343750 0.000000 
0.000000 0.312500 0.000000 
0.000000 0.281250 0.000000 
0.000000 0.250000 0.000000 
0.000000 0.218750 0.000000 
0.000000 0.187500 0.000000 
0.000000 0.156250 0.000000 
0.000000 0.125000 0.000000 
0.000000 0.093750 0.000000 
0.000000 0.062500 0.000000 
0.000000 0.031250 0.000000 
0.500000 0.500000 0.000000 
0.750000 0.250000 0.000000 
0.250000 0.250000 0.000000 
0.250000 0.750000 0.000000 
0.750000 0.750000 0.000000 
0.375000 0.125000 0.000000 
0.125000 0.125000 0.000000 
0.625000 0.125000 0.000000 
0.500000 0.250000 0.000000 
0.875000 0.125000 0.000000 
0.625000 0.375000 0.000000 
0.375000 0.375000 0.000000 
0.125000 0.375000 0.000000 
0.250000 0.500000 0.000000 
0.125000 0.625000 0.000000 
0.375000 0.625000 0.000000 
0.125000 0.875000 0.000000 
0.875000 0.375000 0.000000 
0.875000 0.625000 0.000000 
0.750000 0.500000 0.000000 
0.875000 0.875000 0.000000 
0.625000 0.625000 0.000000 
0.625000 0.875000 0.000000 
0.375000 0.875000 0.000000 
0.500000 0.750000 0.000000 
0.187500 0.062500 0.000000 
0.062500 0.062500 0.000000 
0.312500 0.062500 0.000000 
0.250000 0.125000 0.000000 
0.437500 0.062500 0.000000 
0.312500 0.187500 0.000000 
0.187500 0.187500 0.000000 
0.562500 0.062500 0.000000 
0.500000 0.125000 0.000000 
0.562500 0.187500 0.000000 
0.437500 0.187500 0.000000 
0.687500 0.187500 0.000000 
0.625000 0.250000 0.000000 
0.375000 0.250000 0.000000 
0.687500 0.062500 0.000000 
0.812500 0.062500 0.000000 
0.750000 0.125000 0.000000 
0.937500 0.062500 0.000000 
0.812500 0.187500 0.000000 
0.437500 0.312500 0.000000 
0.312500 0.312500 0.000000 
0.562500 0.312500 0.000000 
0.500000 0.375000 0.000000 
0.687500 0.312500 0.000000 
0.562500 0.437500 0.000000 
0.437500 0.437500 0.000000 
0.062500 0.187500 0.000000 
0.125000 0.250000 0.000000 
0.062500 0.312500 0.000000 
0.187500 0.312500 0.000000 
0.062500 0.437500 0.000000 
0.250000 0.375000 0.000000 
0.187500 0.437500 0.000000 
0.187500 0.562500 0.000000 
0.125000 0.500000 0.000000 
0.250000 0.625000 0.000000 
0.187500 0.687500 0.000000 
0.062500 0.562500 0.000000 
0.312500 0.437500 0.000000 
0.375000 0.500000 0.000000 
0.312500 0.562500 0.000000 
0.437500 0.562500 0.000000 
0.312500 0.687500 0.000000 
0.062500 0.687500 0.000000 
0.125000 0.750000 0.000000 
0.062500 0.812500 0.000000 
0.187500 0.812500 0.000000 
0.062500 0.937500 0.000000 
0.937500 0.187500 0.000000 
0.937500 0.312500 0.000000 
0.875000 0.250000 0.000000 
0.937500 0.437500 0.000000 
0.812500 0.312500 0.000000 
0.937500 0.562500 0.000000 
0.875000 0.500000 0.000000 
0.812500 0.562500 0.000000 
0.812500 0.437500 0.000000 
0.812500 0.687500 0.000000 
0.750000 0.625000 0.000000 
0.750000 0.375000 0.000000 
0.937500 0.687500 0.000000 
0.937500 0.812500 0.000000 
0.875000 0.750000 0.000000 
0.937500 0.937500 0.000000 
0.812500 0.812500 0.000000 
0.687500 0.437500 0.000000 
0.687500 0.562500 0.000000 
0.625000 0.500000 0.000000 
0.687500 0.687500 0.000000 
0.562500 0.562500 0.000000 
0.812500 0.937500 0.000000 
0.687500 0.937500 0.000000 
0.750000 0.875000 0.000000 
0.562500 0.937500 0.000000 
0.687500 0.812500 0.000000 
0.437500 0.937500 0.000000 
0.500000 0.875000 0.000000 
0.437500 0.812500 0.000000 
0.562500 0.812500 0.000000 
0.312500 0.812500 0.000000 
0.375000 0.750000 0.000000 
0.625000 0.750000 0.000000 
0.312500 0.937500 0.000000 
0.187500 0.937500 0.000000 
0.250000 0.875000 0.000000 
0.562500 0.687500 0.000000 
0.437500 0.687500 0.000000 
0.500000 0.625000 0.000000 
0.093750 0.031250 0.000000 
0.031250 0.031250 0.000000 
0.156250 0.031250 0.000000 
0.125000 0.062500 0.000000 
0.218750 0.031250 0.000000 
0.156250 0.093750 0.000000 
0.093750 0.093750 0.000000 
0.281250 0.031250 0.000000 
0.250000 0.062500 0.000000 
0.281250 0.093750 0.000000 
0.218750 0.093750 0.000000 
0.343750 0.093750 0.000000 
0.312500 0.125000 0.000000 
0.187500 0.125000 0.000000 
0.343750 0.031250 0.000000 
0.406250 0.031250 0.000000 
0.375000 0.062500 0.000000 
0.468750 0.031250 0.000000 
0.406250 0.093750 0.000000 
0.218750 0.156250 0.000000 
0.156250 0.156250 0.000000 
0.281250 0.156250 0.000000 
0.250000 0.187500 0.000000 
0.343750 0.156250 0.000000 
0.281250 0.218750 0.000000 
0.218750 0.218750 0.000000 
0.531250 0.031250 0.000000 
0.500000 0.062500 0.000000 
0.531250 0.093750 0.000000 
0.468750 0.093750 0.000000 
0.593750 0.093750 0.000000 
0.562500 0.125000 0.000000 
0.437500 0.125000 0.000000 
0.593750 0.156250 0.000000 
0.531250 0.156250 0.000000 
0.500000 0.187500 0.000000 
0.468750 0.156250 0.000000 
0.531250 0.218750 0.000000 
0.468750 0.218750 0.000000 
0.406250 0.156250 0.000000 
0.656250 0.156250 0.000000 
0.625000 0.187500 0.000000 
0.656250 0.218750 0.000000 
0.593750 0.218750 0.000000 
0.718750 0.218750 0.000000 
0.687500 0.250000 0.000000 
0.562500 0.250000 0.000000 
0.375000 0.187500 0.000000 
0.406250 0.218750 0.000000 
0.343750 0.218750 0.000000 
0.437500 0.250000 0.000000 
0.312500 0.250000 0.000000 
0.593750 0.031250 0.000000 
0.656250 0.031250 0.000000 
0.625000 0.062500 0.000000 
0.718750 0.031250 0.000000 
0.656250 0.093750 0.000000 
0.781250 0.031250 0.000000 
0.750000 0.062500 0.000000 
0.781250 0.093750 0.000000 
0.718750 0.093750 0.000000 
0.843750 0.093750 0.000000 
0.812500 0.125000 0.000000 
0.687500 0.125000 0.000000 
0.843750 0.031250 0.000000 
0.906250 0.031250 0.000000 
0.875000 0.062500 0.000000 
0.968750 0.031250 0.000000 
0.906250 0.093750 0.000000 
0.718750 0.156250 0.000000 
0.781250 0.156250 0.000000 
0.750000 0.187500 0.000000 
0.843750 0.156250 0.000000 
0.781250 0.218750 0.000000 
0.343750 0.281250 0.000000 
0.281250 0.281250 0.000000 
0.406250 0.281250 0.000000 
0.375000 0.312500 0.000000 
0.468750 0.281250 0.000000 
0.406250 0.343750 0.000000 
0.343750 0.343750 0.000000 
0.531250 0.281250 0.000000 
0.500000 0.312500 0.000000 
0.531250 0.343750 0.000000 
0.468750 0.343750 0.000000 
0.593750 0.343750 0.000000 
0.562500 0.375000 0.000000 
0.437500 0.375000 0.000000 
0.593750 0.281250 0.000000 
0.656250 0.281250 0.000000 
0.625000 0.312500 0.000000 
0.718750 0.281250 0.000000 
0.656250 0.343750 0.000000 
0.468750 0.406250 0.000000 
0.406250 0.406250 0.000000 
0.531250 0.406250 0.000000 
0.500000 0.437500 0.000000 
0.593750 0.406250 0.000000 
0.531250 0.468750 0.000000 
0.468750 0.468750 0.000000 
0.031250 0.093750 0.000000 
0.062500 0.125000 0.000000 
0.031250 0.156250 0.000000 
0.093750 0.156250 0.000000 
0.031250 0.218750 0.000000 
0.125000 0.187500 0.000000 
0.093750 0.218750 0.000000 
0.093750 0.281250 0.000000 
0.062500 0.250000 0.000000 
0.125000 0.312500 0.000000 
0.093750 0.343750 0.000000 
0.031250 0.281250 0.000000 
[...]
POINT_DATA 2113
SCALARS damage double
LOOKUP_TABLE default
0.000000
0.000000
0.000000
0.000000
0.000000
0.060606
0.189189
0.378378
0.351351
0.162162
0.081081
0.000000
0.000000
0.000000
0.000000
0.000000
0.027027
0.000000
0.000000
0.000000
0.000000
0.000000
0.000000
0.000000
0.000000
0.000000
0.000000
0.000000
0.081081
0.189189
0.351351
0.378378
0.189189
0.060606
0.000000
0.000000
0.000000
0.000000
0.000000
0.000000
0.000000
0.000000
0.000000
0.000000
0.000000
0.000000
0.000000
0.000000
0.000000
0.000000
0.000000
0.000000
0.000000
0.000000
0.000000
0.000000
0.000000
0.000000
0.000000
0.000000
0.000000
0.000000
0.000000
0.000000
0.000000
0.000000
0.000000
0.060606
0.189189
0.378378
0.351351
0.243243
0.135135
0.000000
0.000000
0.000000
0.000000
0.000000
0.000000
0.000000
0.000000
0.000000
0.000000
0.000000
0.000000
0.000000
0.000000
0.000000
0.000000
0.000000
0.108108
0.189189
0.405405
0.378378
0.189189
0.060606
0.000000
0.000000
0.000000
0.000000
0.000000
0.000000
0.000000
0.000000
0.000000
0.000000
0.000000
0.000000
0.000000
0.000000
0.000000
0.000000
0.000000
0.000000
0.000000
0.000000
0.000000
0.000000
0.000000
0.000000
0.000000
0.000000
0.000000
0.000000
0.000000
0.000000
0.000000
0.000000
0.558824
0.000000
0.102941
0.073529
0.029412
0.000000
0.191176
0.044118
0.117647
0.176471
0.000000
0.000000
0.044118
0.000000
0.058824
0.000000
0.250000
0.029412
0.044118
0.000000
0.220588
0.000000
0.029412
0.014706
0.220588
0.245902
0.055556
0.000000
0.147059
0.000000
0.029412
0.455882
0.000000
0.000000
0.102941
0.044118
0.264706
0.264706
0.044118
0.000000
0.262295
0.147059
0.055556
0.205882
0.073529
0.000000
0.338235
0.529412
0.000000
0.176471
0.102941
0.049180
0.088235
0.016393
0.058824
0.000000
0.014706
0.044118
0.044118
0.014706
0.014706
0.058824
0.000000
0.000000
0.000000
0.000000
0.102941
0.014706
0.032787
0.088235
0.049180
0.470588
0.055556
0.049180
0.016393
0.073529
0.000000
0.029412
0.000000
0.014706
0.044118
0.044118
0.029412
0.000000
0.014706
0.016393
0.049180
0.073529
0.055556
0.367647
0.000000
0.000000
0.000000
0.000000
0.176471
0.278689
0.000000
0.147059
0.000000
0.147059
0.000000
0.000000
0.044118
0.250000
0.029412
0.014706
0.176471
0.000000
0.245902
0.073529
0.294118
0.088235
0.529412
0.200000
0.000000
0.380000
0.245902
0.120000
0.441176
0.132353
0.000000
0.032787
0.058824
0.191176
0.014706
0.029412
0.397059
0.000000
0.000000
0.000000
0.000000
0.000000
0.264706
0.455882
0.102941
0.191176
0.014706
0.073529
0.279412
0.000000
0.000000
0.000000
0.000000
0.000000
0.014706
0.000000
0.102941
0.029412
0.044118
0.014706
0.073529
0.044118
0.029412
0.176471
0.264706
0.250000
0.264706
0.088235
0.117647
0.264706
0.058824
0.058824
0.058824
0.117647
0.029412
0.000000
0.000000
0.000000
0.000000
0.014706
0.100000
0.049180
0.176471
0.058824
0.455882
0.382353
0.058824
0.420000
0.200000
0.278689
0.000000
0.147059
0.323529
0.220588
0.132353
0.455882
0.073529
0.014706
0.014706
0.073529
0.000000
0.161765
0.000000
0.000000
0.308824
0.338235
0.426471
0.220588
0.147059
0.220588
0.088235
0.294118
0.132353
0.132353
0.000000
0.000000
0.308824
0.000000
0.426471
0.558824
0.044118
0.426471
0.308824
0.000000
0.049180
0.000000
0.088235
0.000000
0.147059
0.073529
0.044118
0.049180
0.058824
0.029412
0.000000
0.455882
0.485294
0.500000
0.102941
0.117647
0.000000
0.000000
0.000000
0.000000
0.000000
0.058824
0.058824
0.014706
0.058824
0.000000
0.000000
0.058824
0.000000
0.044118
0.044118
0.044118
0.058824
0.014706
0.014706
0.000000
0.000000
0.014706
0.029412
0.058824
0.073529
0.132353
0.000000
0.000000
0.000000
0.000000
0.000000
0.000000
0.000000
0.000000
0.000000
0.000000
0.000000
0.000000
0.000000
0.000000
0.000000
0.000000
0.000000
0.000000
0.102941
0.000000
0.308824
0.000000
0.000000
0.000000
0.000000
0.000000
0.044118
0.000000
0.000000
0.000000
0.029412
0.000000
0.058824
0.058824
0.073529
0.049180
0.191176
0.132353
0.000000
0.485294
0.426471
0.455882
0.161765
0.455882
0.000000
0.049180
0.000000
0.176471
0.000000
0.000000
0.000000
0.049180
0.000000
0.088235
0.000000
0.049180
0.044118
0.073529
0.014706
0.058824
0.102941
0.000000
0.000000
0.000000
0.000000
0.000000
0.455882
0.470588
0.073529
0.073529
0.029412
0.000000
0.000000
0.000000
0.000000
0.000000
0.014706
0.014706
0.044118
0.058824
0.058824
0.044118
0.000000
0.000000
0.073529
0.102941
0.044118
0.029412
0.000000
0.014706
0.000000
0.000000
0.044118
0.014706
0.029412
0.000000
0.014706
0.000000
0.000000
0.000000
0.000000
0.014706
0.000000
0.049180
0.073529
0.044118
0.088235
0.117647
0.058824
0.000000
0.000000
0.049180
0.000000
0.147059
0.485294
0.455882
0.058824
0.455882
0.058824
0.000000
0.000000
0.000000
0.000000
0.000000
0.000000
0.000000
0.000000
0.000000
0.000000
0.000000
0.000000
0.000000
0.000000
0.000000
0.000000
0.000000
0.044118
0.044118
0.176471
0.044118
0.426471
0.200000
0.380000
0.295082
0.120000
0.455882
0.000000
0.049180
0.058824
0.147059
0.014706
0.073529
0.279412
0.000000
0.000000
0.000000
0.000000
0.000000
0.279412
0.264706
0.117647
0.220588
0.014706
0.000000
0.000000
0.000000
0.000000
0.000000
0.014706
0.044118
0.058824
0.044118
0.102941
0.058824
0.102941
0.220588
0.176471
0.014706
0.029412
0.058824
0.044118
0.073529
0.029412
0.044118
0.294118
0.338235
0.147059
0.617647
0.029412
0.000000
0.000000
0.000000
0.000000
0.014706
0.100000
0.000000
0.117647
0.014706
0.455882
0.441176
0.014706
0.380000
0.200000
0.311475
0.102941
0.176471
0.132353
0.014706
0.235294
0.058824
0.397059
0.132353
0.147059
0.352941
0.220588
0.411765
0.000000
0.088235
0.235294
0.044118
0.014706
0.014706
0.426471
0.308824
0.558824
0.000000
0.000000
0.121951
0.068182
0.279070
0.132075
0.000000
0.441860
0.340000
0.339286
0.232143
0.321429
0.442623
0.147541
0.232558
0.139535
0.200000
0.046512
0.178571
0.169231
0.112903
0.261538
0.205882
0.323077
0.235294
0.147059
0.000000
0.000000
0.017857
0.053571
0.000000
0.032787
0.114754
0.015385
0.046154
0.102941
0.107692
0.102941
0.147059
0.215385
0.000000
0.014706
0.000000
0.029412
0.000000
0.014706
0.117647
0.308824
0.352941
0.382353
0.264706
0.441176
0.000000
0.000000
0.000000
0.000000
0.000000
0.023256
0.000000
0.000000
0.000000
0.000000
0.000000
0.000000
0.000000
0.000000
0.000000
0.000000
0.000000
0.000000
0.000000
0.000000
0.000000
0.000000
0.308824
0.205882
0.338235
0.441176
0.205882
0.323529
0.279412
0.161765
0.161765
0.205882
0.235294
0.088235
0.132353
0.308824
0.058824
0.014706
0.029412
0.000000
0.044118
0.220588
0.308824
0.176471
0.176471
0.073529
0.088235
0.147059
0.000000
0.000000
0.000000
0.000000
0.000000
0.000000
0.000000
0.000000
0.000000
0.000000
0.000000
0.000000
0.000000
0.000000
0.000000
0.000000
0.000000
0.000000
0.000000
0.014706
0.014706
0.000000
0.000000
0.000000
0.000000
0.000000
0.044118
0.014706
0.029412
0.029412
0.102941
0.029412
0.014706
0.044118
0.029412
0.014706
0.029412
0.029412
0.029412
0.000000
0.088235
0.058824
0.014706
0.044118
0.117647
0.044118
0.014706
0.000000
0.014706
0.014706
0.014706
0.014706
0.102941
0.147059
0.264706
0.147059
0.308824
0.338235
0.191176
0.264706
0.367647
0.352941
0.235294
0.264706
0.352941
0.205882
0.176471
0.161765
0.117647
0.191176
0.058824
0.044118
0.205882
0.205882
0.264706
0.220588
0.382353
0.205882
0.014706
0.014706
0.044118
0.044118
0.073529
0.073529
0.073529
0.058824
0.058824
0.073529
0.088235
0.044118
0.117647
0.102941
0.058824
0.044118
0.088235
0.014706
0.029412
0.044118
0.029412
0.044118
0.000000
0.000000
0.000000
0.000000
0.000000
0.000000
0.000000
0.000000
0.000000
0.000000
0.000000
0.000000
0.000000
0.000000
0.000000
0.000000
0.000000
0.000000
0.000000
0.000000
0.000000
0.014706
0.046512
0.000000
0.071429
0.017857
0.160714
0.163934
0.016393
0.230769
0.107692
0.102941
0.046154
0.161765
0.117647
0.015385
0.307692
0.470588
0.367647
0.411765
0.250000
0.441176
0.264706
0.014706
0.058824
0.014706
0.147059
0.044118
0.139535
0.232558
0.200000
0.465116
0.285714
0.279070
0.380000
0.250000
0.357143
0.132075
0.163934
0.442623
0.121951
0.000000
0.068182
0.000000
0.000000
0.276923
0.200000
0.205882
0.112903
0.147059
0.132353
0.191176
0.250000
0.220588
0.250000
0.191176
0.294118
0.205882
0.205882
0.176471
0.117647
0.191176
0.250000
0.235294
0.470588
0.205882
0.220588
0.102941
0.117647
0.058824
0.088235
0.044118
0.029412
0.073529
0.029412
0.000000
0.014706
0.000000
0.000000
0.088235
0.014706
0.014706
0.000000
0.058824
0.014706
0.000000
0.088235
0.088235
0.102941
0.191176
0.147059
0.000000
0.000000
0.000000
0.000000
0.014706
0.000000
0.000000
0.220588
0.250000
0.367647
0.235294
0.382353
0.485294
0.191176
0.352941
0.529412
0.411765
0.279412
0.514706
0.352941
0.132353
0.264706
0.308824
0.176471
0.367647
0.058824
0.088235
0.441176
0.088235
0.132353
0.029412
0.279412
0.000000
0.264706
0.367647
0.323529
0.264706
0.308824
0.191176
0.220588
0.147059
0.220588
0.044118
0.044118
0.205882
0.102941
0.044118
0.044118
0.000000
0.000000
0.161765
0.044118
0.058824
0.000000
0.000000
0.044118
0.000000
0.161765
0.102941
0.411765
0.176471
0.044118
0.544118
0.544118
0.558824
0.426471
0.323529
0.426471
0.308824
0.338235
0.132353
0.191176
0.000000
0.102941
0.426471
0.176471
0.588235
0.558824
0.323529
0.558824
0.426471
0.000000
0.000000
0.000000
0.000000
0.000000
0.049180
0.000000
0.000000
0.000000
0.049180
0.000000
0.000000
0.092308
0.102941
0.076923
0.117647
0.061538
0.000000
0.000000
0.000000
0.000000
0.000000
0.147059
0.088235
0.088235
0.073529
0.132353
0.073529
0.061538
0.058824
0.058824
0.046154
0.061538
0.030769
0.032787
0.049180
0.073529
0.058824
0.058824
0.044118
0.058824
0.044118
0.015385
0.000000
0.000000
0.000000
0.000000
0.000000
0.220588
0.470588
0.191176
0.191176
0.132353
0.455882
0.161765
0.205882
0.485294
0.058824
0.250000
0.088235
0.161765
0.147059
0.088235
0.102941
0.102941
0.058824
0.161765
0.058824
0.441176
0.044118
0.000000
0.000000
0.000000
0.000000
0.000000
0.000000
0.000000
0.000000
0.000000
0.000000
0.000000
0.000000
0.000000
0.000000
0.000000
0.014706
0.000000
0.000000
0.000000
0.000000
0.000000
0.000000
0.088235
0.058824
0.058824
0.088235
0.029412
0.029412
0.058824
0.014706
0.029412
0.044118
0.044118
0.029412
0.044118
0.029412
0.000000
0.000000
0.014706
0.014706
0.000000
0.000000
0.014706
0.117647
0.073529
0.102941
0.073529
0.029412
0.000000
0.000000
0.014706
0.014706
0.014706
0.044118
0.044118
0.058824
0.073529
0.044118
0.058824
0.029412
0.029412
0.102941
0.073529
0.044118
0.029412
0.029412
0.044118
0.044118
0.014706
0.044118
0.029412
0.029412
0.014706
0.029412
0.000000
0.000000
0.000000
0.000000
0.000000
0.000000
0.014706
0.029412
0.029412
0.029412
0.029412
0.029412
0.029412
0.029412
0.014706
0.058824
0.058824
0.088235
0.058824
0.073529
0.102941
0.088235
0.250000
0.102941
0.088235
0.058824
0.014706
0.000000
0.000000
0.000000
0.000000
0.000000
0.000000
0.000000
0.000000
0.000000
0.000000
0.000000
0.000000
0.000000
0.000000
0.029412
0.000000
0.000000
0.000000
0.000000
0.000000
0.000000
0.044118
0.000000
0.014706
0.000000
0.014706
0.000000
0.000000
0.000000
0.000000
0.000000
0.000000
0.000000
0.000000
0.000000
0.000000
0.000000
0.000000
0.000000
0.000000
0.000000
0.000000
0.000000
0.000000
0.000000
0.000000
0.000000
0.000000
0.000000
0.000000
0.000000
0.000000
0.000000
0.000000
0.000000
0.000000
0.000000
0.000000
0.000000
0.000000
0.000000
0.000000
0.000000
0.000000
0.000000
0.000000
0.000000
0.000000
0.000000
0.000000
0.000000
0.000000
0.044118
0.000000
0.102941
0.044118
0.044118
0.000000
0.102941
0.044118
0.000000
0.176471
0.308824
0.176471
0.426471
0.176471
0.000000
0.000000
0.000000
0.044118
0.000000
0.000000
0.000000
0.000000
0.000000
0.000000
0.000000
0.000000
0.000000
0.000000
0.000000
0.000000
0.014706
0.000000
0.000000
0.000000
0.000000
0.000000
0.029412
0.014706
0.029412
0.014706
0.044118
0.000000
0.000000
0.000000
0.000000
0.000000
0.000000
0.000000
0.000000
0.000000
0.016393
0.000000
0.000000
0.000000
0.014706
0.015385
0.044118
0.030769
0.000000
0.000000
0.000000
0.000000
0.000000
0.058824
0.058824
0.058824
0.044118
0.073529
0.073529
0.046154
0.088235
0.073529
0.061538
0.061538
0.061538
0.049180
0.049180
0.117647
0.102941
0.147059
0.088235
0.205882
0.205882
0.076923
0.000000
0.000000
0.000000
0.000000
0.000000
0.058824
0.500000
0.058824
0.044118
0.088235
0.352941
0.058824
0.058824
0.470588
0.441176
0.205882
0.147059
0.088235
0.073529
0.088235
0.058824
0.235294
0.147059
0.455882
0.235294
0.294118
0.264706
0.000000
0.000000
0.000000
0.000000
0.000000
0.049180
0.000000
0.000000
0.000000
0.049180
0.000000
0.000000
0.092308
0.147059
0.107692
0.191176
0.112903
0.000000
0.000000
0.000000
0.000000
0.000000
0.000000
0.000000
0.000000
0.000000
0.000000
0.000000
0.000000
0.000000
0.000000
0.000000
0.049180
0.049180
0.000000
0.000000
0.000000
0.000000
0.000000
0.092308
0.076923
0.102941
0.061538
0.117647
0.000000
0.000000
0.000000
0.000000
0.000000
0.032787
0.049180
0.030769
0.046154
0.058824
0.061538
0.058824
0.073529
0.061538
0.015385
0.044118
0.058824
0.058824
0.029412
0.058824
0.073529
0.073529
0.088235
0.088235
0.088235
0.117647
0.000000
0.000000
0.000000
0.000000
0.000000
0.000000
0.000000
0.000000
0.000000
0.000000
0.000000
0.000000
0.000000
0.000000
0.000000
0.000000
0.000000
0.000000
0.000000
0.000000
0.000000
0.029412
0.147059
0.088235
0.455882
0.088235
0.132353
0.058824
0.470588
0.073529
0.102941
0.073529
0.073529
0.088235
0.058824
0.058824
0.147059
0.044118
0.426471
0.073529
0.058824
0.058824
0.044118
0.029412
0.000000
0.000000
0.000000
0.000000
0.000000
0.000000
0.000000
0.000000
0.000000
0.000000
0.000000
0.014706
0.000000
0.000000
0.000000
0.000000
0.000000
0.014706
0.000000
0.014706
0.014706
0.000000
0.000000
0.014706
0.014706
0.029412
0.029412
0.029412
0.044118
0.029412
0.058824
0.073529
0.029412
0.058824
0.058824
0.073529
0.058824
0.044118
0.073529
0.029412
0.014706
0.014706
0.000000
0.014706
0.000000
0.000000
0.014706
0.029412
0.044118
0.029412
0.044118
0.029412
0.044118
0.044118
0.117647
0.058824
0.132353
0.029412
0.058824
0.029412
0.014706
0.014706
0.014706
0.014706
0.000000
0.014706
0.029412
0.014706
0.029412
0.014706
0.014706
0.000000
0.000000
0.000000
0.000000
0.000000
0.000000
0.000000
0.073529
0.044118
0.117647
0.073529
0.029412
0.029412
0.029412
0.014706
0.029412
0.014706
0.029412
0.029412
0.000000
0.000000
0.000000
0.000000
0.000000
0.014706
0.029412
0.029412
0.014706
0.014706
0.000000
0.000000
0.000000
0.000000
0.000000
0.000000
0.000000
0.000000
0.000000
0.000000
0.000000
0.000000
0.000000
0.000000
0.000000
0.000000
0.000000
0.000000
0.000000
0.000000
0.015385
0.029412
0.000000
0.000000
0.000000
0.000000
0.000000
0.049180
0.032787
0.061538
0.061538
0.058824
0.046154
0.073529
0.058824
0.030769
0.061538
0.073529
0.102941
0.088235
0.147059
0.161765
0.088235
0.044118
0.058824
0.058824
0.073529
0.058824
0.000000
0.000000
0.000000
0.000000
0.000000
0.000000
0.000000
0.000000
0.000000
0.000000
0.049180
0.049180
0.000000
0.000000
0.000000
0.000000
0.000000
0.076923
0.092308
0.117647
0.112903
0.161765
0.058824
0.058824
0.147059
0.073529
0.073529
0.088235
0.470588
0.073529
0.073529
0.088235
0.117647
0.044118
0.088235
0.132353
0.455882
0.220588
0.132353
0.044118
0.088235
0.044118
0.073529
0.073529
0.014706
0.014706
0.000000
0.014706
0.000000
0.000000
0.000000
0.000000
0.000000
0.000000
0.000000
0.000000
0.000000
0.000000
0.000000
0.000000
0.000000
0.000000
0.000000
0.000000
0.000000
0.000000
0.000000
0.000000
0.000000
0.000000
0.000000
0.000000
0.000000
0.000000
0.000000
0.000000
0.000000
0.000000
0.000000
0.000000
0.000000
0.000000
0.000000
0.000000
0.000000
0.000000
0.000000
0.000000
0.000000
0.000000
0.000000
0.000000
0.000000
0.000000
0.000000
0.000000
0.000000
0.000000
0.000000
0.000000
0.000000
0.000000
0.000000
0.000000
0.000000
0.000000
0.000000
0.014706
0.000000
0.000000
0.000000
0.000000
0.000000
0.000000
0.000000
0.000000
0.044118
0.000000
0.102941
0.000000
0.044118
0.102941
0.102941
0.102941
0.176471
0.176471
0.000000
0.000000
0.044118
0.000000
0.102941
0.308824
0.308824
0.426471
0.308824
0.558824
0.000000
0.121951
0.068182
0.279070
0.132075
0.465116
0.380000
0.375000
0.250000
0.303571
0.442623
0.163934
0.232558
0.186047
0.220000
0.046512
0.196429
0.215385
0.292308
0.235294
0.338462
0.279412
0.000000
0.000000
0.000000
0.053571
0.000000
0.000000
0.147541
0.000000
0.092308
0.102941
0.107692
0.117647
0.147059
0.230769
0.000000
0.014706
0.029412
0.058824
0.029412
0.073529
0.147059
0.367647
0.294118
0.352941
0.176471
0.441176
0.000000
0.000000
0.000000
0.000000
0.000000
0.000000
0.000000
0.000000
0.000000
0.000000
0.000000
0.000000
0.000000
0.000000
0.000000
0.000000
0.000000
0.000000
0.000000
0.000000
0.000000
0.014706
0.205882
0.279412
0.426471
0.176471
0.220588
0.161765
0.235294
0.205882
0.161765
0.191176
0.176471
0.117647
0.161765
0.147059
0.279412
0.117647
0.294118
0.102941
0.088235
0.073529
0.073529
0.029412
0.000000
0.000000
0.000000
0.000000
0.000000
0.000000
0.000000
0.000000
0.000000
0.000000
0.000000
0.000000
0.000000
0.000000
0.000000
0.000000
0.000000
0.000000
0.000000
0.014706
0.014706
0.000000
0.000000
0.014706
0.000000
0.073529
0.014706
0.029412
0.029412
0.014706
0.044118
0.058824
0.014706
0.044118
0.044118
0.073529
0.014706
0.176471
0.176471
0.014706
0.058824
0.088235
0.191176
0.176471
0.132353
0.235294
0.264706
0.044118
0.117647
0.088235
0.205882
0.117647
0.000000
0.029412
0.014706
0.044118
0.029412
0.029412
0.044118
0.029412
0.029412
0.029412
0.014706
0.014706
0.029412
0.044118
0.044118
0.014706
0.044118
0.014706
0.073529
0.058824
0.014706
0.058824
0.029412
0.058824
0.044118
0.102941
0.220588
0.264706
0.338235
0.308824
0.220588
0.367647
0.308824
0.235294
0.250000
0.279412
0.191176
0.132353
0.397059
0.323529
0.411765
0.294118
0.279412
0.044118
0.058824
0.014706
0.088235
0.000000
0.000000
0.000000
0.000000
0.000000
0.000000
0.000000
0.000000
0.000000
0.000000
0.000000
0.000000
0.000000
0.000000
0.000000
0.000000
0.000000
0.000000
0.000000
0.000000
0.000000
0.000000
0.000000
0.046512
0.000000
0.053571
0.000000
0.160714
0.114754
0.000000
0.200000
0.076923
0.058824
0.000000
0.102941
0.058824
0.000000
0.323077
0.338235
0.352941
0.205882
0.279412
0.441176
0.132353
0.014706
0.000000
0.000000
0.058824
0.014706
0.139535
0.232558
0.200000
0.465116
0.285714
0.279070
0.360000
0.267857
0.392857
0.132075
0.180328
0.442623
0.121951
0.000000
0.068182
0.323077
0.230769
0.250000
0.014706
0.029412
0.014706
0.088235
0.044118
0.117647
0.102941
0.147059
0.132353
0.294118
0.235294
0.088235
0.205882
0.352941
0.308824
0.147059
0.176471
0.132353
0.014706
0.000000
0.000000
0.102941
0.000000
0.235294
0.132353
0.161765
0.044118
0.279412
0.161765
0.000000
0.323529
0.617647
0.411765
0.279412
0.676471
0.014706
0.088235
0.029412
0.220588
0.044118
0.191176
0.264706
0.235294
0.397059
0.102941
0.205882
0.485294
0.147059
0.338235
0.500000
0.602941
0.352941
0.514706
0.397059
0.044118
0.088235
0.044118
0.147059
0.000000
0.000000
0.264706
0.308824
0.367647
0.176471
0.426471
0.088235
0.058824
0.073529
0.014706
0.029412
0.044118
0.058824
0.029412
0.029412
0.014706
0.014706
0.014706
0.014706
0.014706
0.000000
0.014706
0.000000
0.000000
0.000000
0.147059
0.338235
0.191176
0.529412
0.323529
0.411765
0.544118
0.426471
0.558824
0.176471
0.308824
0.426471
0.161765
0.044118
0.102941
0.558824
0.426471
0.558824
VECTORS displacements double 
-0.002495 0.000000 0.000000 
0.002495 0.000000 0.000000 
0.002495 0.000000 0.000000 
-0.002495 0.000000 0.000000 
-0.002495 0.000000 0.000000 
-0.002495 0.000000 0.000000 
-0.002495 0.000000 0.000000 
-0.002495 0.000000 0.000000 
0.002797 0.005870 0.000346 
-0.000589 0.003618 0.000303 
-0.000548 0.002916 -0.000008 
-0.000479 0.002579 0.000066 
-0.000422 0.002389 -0.000082 
-0.000360 0.002341 -0.000261 
-0.000334 0.002269 -0.000071 
-0.000295 0.002339 0.000158 
-0.000243 0.002338 -0.000184 
-0.000234 0.002501 -0.000083 
-0.000223 0.002627 0.000137 
-0.000181 0.002712 0.000392 
-0.000160 0.002897 0.000407 
-0.000152 0.003053 0.000051 
-0.000126 0.003182 -0.000120 
-0.000129 0.003361 -0.000081 
-0.000114 0.003528 -0.000070 
-0.000118 0.003690 0.000119 
-0.000106 0.003843 0.000078 
-0.000097 0.004037 0.000021 
-0.000069 0.004186 0.000001 
-0.000067 0.004415 0.000003 